#\#CIF_2.0
# Created by the Bilbao Crystallographic Server
# http://www.cryst.ehu.es
# Date: 10/14/2024
# From a file submitted by Soohyeon Shin

data_5yOhtAoR
_audit_creation_date            2024-10-14
_audit_creation_method          "Bilbao Crystallographic Server"

_chemical_name_systematic
;
;
_chemical_name_common                    ?
_chemical_formula_moiety                 ?
_chemical_formula_structural             ?
_chemical_formula_analytical             ?
_chemical_formula_iupac                  ?
_chemical_formula_sum                    "Ce1 Si1.3 Ag0.7"
_chemical_formula_weight                 ?
_chemical_melting_point                  ?
_chemical_compound_source                ?
_chemical_absolute_configuration         ?


_citation_journal_abbrev        "Nat.Commun"
_citation_journal_volume        15
_citation_page_first            .
_citation_page_last             .
_citation_article_id            8423
_citation_year                  2024
_citation_DOI                   10.1038/s41467-024-52720-9

loop_
_citation_author_name
"S. Shin"
"A. Ramires"
"V. Pomjakushin"
"I. Plokhikh"
"E. Pomjakushina"

_temperature_position_structure         15
_temperature_atom_positions             .
_temperature_non-magn_atom_positions    .
_temperature_cell_parameters            .

_atomic_positions_source_database_code_ICSD  .
_atomic_positions_source_other               .

_transition_temperature     6
_experiment_temperature     1.8

loop_
_irrep_id
_irrep_dimension
_irrep_small_dimension
_irrep_direction_type
_irrep_action
_irrep_modes_number
_irrep_presence
mGM2- 1 1 . primary 1 .

_exptl_crystal_magnetic_properties_details
;
1k magnetic structure
k-maximal symmetry
1-dim irrep
;

_active_magnetic_irreps_details
;
NPD
Position structure was determined in the non-magnetic phase, at 15 K.
The difference pattern (1.8 K - 15 K) was refined with the relevant magnetic space group.
AFM structure. For lower substitutions of Si by Ag, the magnetic ordering becomes Ferromagnetic (see entry #0.1029)
;

_parent_space_group.name_H-M_alt  'I 4_1/a m d'
_parent_space_group.IT_number                       141
_parent_space_group.transform_Pp_abc  'a,b,c;0,0,0'

loop_
_parent_propagation_vector.id
_parent_propagation_vector.kxkykz
k1 [0 0 0]

_parent_space_group.child_transform_Pp_abc  'a,b,c;0,0,0'
_space_group_magn.transform_BNS_Pp_abc  'a,b,c;0,0,0'


_space_group_magn.number_BNS  141.556
_space_group_magn.name_BNS  "I 4_1'/a' m' d"
_space_group_magn.point_group_name  "4'/m'm'm"
_space_group_magn.point_group_number  "15.5.57"
_cell_length_a                 4.21772
_cell_length_b                 4.21772
_cell_length_c                 14.5112
_cell_angle_alpha              90.0000
_cell_angle_beta               90.0000
_cell_angle_gamma              90.0000

loop_
_space_group_symop_magn_operation.id
_space_group_symop_magn_operation.xyz
1 x,y,z,+1 
2 -x,-y,-z,-1 
3 x,-y,-z,+1 
4 -x,y,z,-1 
5 x,-y+1/2,z,-1 
6 x,y+1/2,-z,-1 
7 -x,-y+1/2,z,+1 
8 -x,y+1/2,-z,+1 
9 -y+1/4,x+3/4,z+1/4,-1 
10 y+1/4,-x+3/4,-z+1/4,+1 
11 -y+1/4,-x+1/4,-z+3/4,-1 
12 y+1/4,x+3/4,-z+1/4,-1 
13 y+1/4,-x+1/4,z+3/4,-1 
14 y+1/4,x+1/4,z+3/4,+1 
15 -y+1/4,x+1/4,-z+3/4,+1 
16 -y+1/4,-x+3/4,z+1/4,+1 

loop_
_space_group_symop_magn_centering.id
_space_group_symop_magn_centering.xyz
1 x,y,z,+1 
2 x+1/2,y+1/2,z+1/2,+1 

loop_
_atom_site_label
_atom_site_type_symbol
_atom_site_fract_x
_atom_site_fract_y
_atom_site_fract_z
_atom_site_occupancy
Ce1 Ce 0.00000 0.75000 0.12500 1.00
Ag1 Ag 0.00000 0.25000 0.29252 0.36
Si1 Si 0.00000 0.25000 0.29252 0.61

loop_
_atom_site_moment.label
_atom_site_moment.crystalaxis_x
_atom_site_moment.crystalaxis_y
_atom_site_moment.crystalaxis_z
_atom_site_moment.symmform
_atom_site_moment.magnitude
_atom_site_moment.spherical_azimuthal
_atom_site_moment.spherical_polar
Ce1 0.0 0.0 1.110(10) 0,0,Mz 1.110(10) ? ?

