#\#CIF_2.0
# Created by the Bilbao Crystallographic Server
# http://www.cryst.ehu.es
# Date: 12/15/2023

data_5yOhtAoR
_audit_creation_date            2023-12-15
_audit_creation_method          "Bilbao Crystallographic Server"

_chemical_name_systematic
;
;
_chemical_name_common                    ?
_chemical_formula_moiety                 ?
_chemical_formula_structural             ?
_chemical_formula_analytical             ?
_chemical_formula_iupac                  ?
_chemical_formula_sum                    "Fe0.25 Nb1 S2"
_chemical_formula_weight                 ?
_chemical_melting_point                  ?
_chemical_compound_source                ?
_chemical_absolute_configuration         ?


_citation_journal_abbrev        "Inorg. Chem."
_citation_journal_volume        62
_citation_page_first            18179
_citation_page_last             18188
_citation_article_id            .
_citation_year                  2023
_citation_DOI                   10.1021/acs.inorgchem.3c02652

loop_
_citation_author_name
"E. A. Lawrence"
"X. Huai"
"Do. Kim"
"M. Avdeev"
"Y. Chen"
"G. Skorupskii"
"A. Miura"
"A. Ferrenti"
"M. Waibel"
"S. Kawaguchi"
"N. Ng"
"B. Kaman"
"Z. Cai"
"L. Schoop"
"S. Kushwaha"
"F. Liu"
"T. T. Tran"
"H. Ji"

_temperature_position_structure         .
_temperature_atom_positions             .
_temperature_non-magn_atom_positions    .
_temperature_cell_parameters            .

_atomic_positions_source_database_code_ICSD  .
_atomic_positions_source_other               .

_transition_temperature     150
_experiment_temperature     3

loop_
_irrep_id
_irrep_dimension
_irrep_small_dimension
_irrep_direction_type
_irrep_action
_irrep_modes_number
_irrep_presence
mGM4+ 1 1 . primary 1 .

_exptl_crystal_magnetic_properties_details
;
NPD
;

_active_magnetic_irreps_details
;
1k magnetic structure
k-maximal magnetic symmetry
1-dim irrep
;

_parent_space_group.name_H-M_alt  'P 6_3/m m c'
_parent_space_group.IT_number                       194
_parent_space_group.transform_Pp_abc  'a,b,c;0,0,0'

loop_
_parent_propagation_vector.id
_parent_propagation_vector.kxkykz
k1 [0 0 0]

_parent_space_group.child_transform_Pp_abc  'a,b,c;0,0,0'
_space_group_magn.transform_BNS_Pp_abc  'a,b,c;0,0,0'


_space_group_magn.number_BNS  194.268
_space_group_magn.name_BNS  "P 6_3'/m' m' c"
_space_group_magn.point_group_name  "6'/m'mm'"
_space_group_magn.point_group_number  "27.5.104"
_cell_length_a                 6.6435(2)
_cell_length_b                 6.6435(2)
_cell_length_c                 12.0357(4)
_cell_angle_alpha              90.00
_cell_angle_beta               90.00
_cell_angle_gamma              120.00

loop_
_space_group_symop_magn_operation.id
_space_group_symop_magn_operation.xyz
1 x,y,z,+1 
2 -y,x-y,z,+1 
3 -x+y,-x,z,+1 
4 x,x-y,-z+1/2,+1 
5 -x+y,y,-z+1/2,+1 
6 -y,-x,-z+1/2,+1 
7 -x,-y,-z,+1 
8 y,-x+y,-z,+1 
9 x-y,x,-z,+1 
10 -x,-x+y,z+1/2,+1 
11 x-y,-y,z+1/2,+1 
12 y,x,z+1/2,+1 
13 x-y,x,z+1/2,-1 
14 -x,-y,z+1/2,-1 
15 y,-x+y,z+1/2,-1 
16 x-y,-y,-z,-1 
17 y,x,-z,-1 
18 -x,-x+y,-z,-1 
19 -x+y,-x,-z+1/2,-1 
20 x,y,-z+1/2,-1 
21 -y,x-y,-z+1/2,-1 
22 -x+y,y,z,-1 
23 -y,-x,z,-1 
24 x,x-y,z,-1 

loop_
_space_group_symop_magn_centering.id
_space_group_symop_magn_centering.xyz
1 x,y,z,+1 

loop_
_atom_site_label
_atom_site_type_symbol
_atom_site_fract_x
_atom_site_fract_y
_atom_site_fract_z
_atom_site_occupancy
Fe1 Fe 0.00000 0.00000 0.00000 0.977(6)
Nb1 Nb 0.00000 0.00000 0.25000 1.
Nb2 Nb 0.49410 0.98820 0.25000 1.
S1 S 0.33333 0.66667 0.6154(7) 1.
S2 S 0.8343(4) 0.6686(4) 0.6195(4) 1.

loop_
_atom_site_moment.label
_atom_site_moment.crystalaxis_x
_atom_site_moment.crystalaxis_y
_atom_site_moment.crystalaxis_z
_atom_site_moment.symmform
_atom_site_moment.magnitude
_atom_site_moment.spherical_azimuthal
_atom_site_moment.spherical_polar
Fe1 0.0 0.0 3.51(4) 0,0,mz 3.51(4) ? ?

