#\#CIF_2.0
# Created by the Bilbao Crystallographic Server
# http://www.cryst.ehu.es
# Date: 11/08/2024

data_5yOhtAoR
_audit_creation_date            2024-11-08
_audit_creation_method          "Bilbao Crystallographic Server"

_chemical_name_systematic
;
;
_chemical_name_common                    ?
_chemical_formula_moiety                 ?
_chemical_formula_structural             ?
_chemical_formula_analytical             ?
_chemical_formula_iupac                  ?
_chemical_formula_sum                    "Ho1 Ga1"
_chemical_formula_weight                 ?
_chemical_melting_point                  ?
_chemical_compound_source                ?
_chemical_absolute_configuration         ?


_citation_journal_abbrev        "Journal of Physics: Conference Series"
_citation_journal_volume        340
_citation_page_first            .
_citation_page_last             .
_citation_article_id            012071
_citation_year                  2012
_citation_DOI                   10.1088/1742-6596/340/1/012071

loop_
_citation_author_name
"R. A. Susilo"
"S. Munoz Perez"
"R. Cobas"
"J. M. Cadogan"
"M. Avdeev"

_temperature_position_structure         .
_temperature_atom_positions             .
_temperature_non-magn_atom_positions    .
_temperature_cell_parameters            .

_atomic_positions_source_database_code_ICSD  .
_atomic_positions_source_other               .

_transition_temperature     20
_experiment_temperature     3

loop_
_irrep_id
_irrep_dimension
_irrep_small_dimension
_irrep_direction_type
_irrep_action
_irrep_modes_number
_irrep_presence
mGM2+ 1 1 . primary 1 .
mGM4+ 1 1 . primary 1 .
mGM3+ 1 1 . primary 1 .

_exptl_crystal_magnetic_properties_details
;
NPD
Ferromagnet along a general direction
;

_active_magnetic_irreps_details
;
1k magnetic structure
Three 1-dim irreps are necessary as primary irreps for this model
The three spin components correspond to three different irreps
Between 66K and 20K a ferromagnetic phase along c is reported (see #0.1047)
;

_parent_space_group.name_H-M_alt  'C m c m'
_parent_space_group.IT_number                       63
_parent_space_group.transform_Pp_abc  'a,b,c;0,0,0'

loop_
_parent_propagation_vector.id
_parent_propagation_vector.kxkykz
k1 [0 0 0]

_parent_space_group.child_transform_Pp_abc  'a,b,c;0,0,0'
_space_group_magn.transform_BNS_Pp_abc  '1/2a+1/2b,-1/2a+1/2b,c;0,0,0'


_space_group_magn.number_BNS  2.4
_space_group_magn.name_BNS  "P -1.1"
_space_group_magn.point_group_name  "-1.1"
_space_group_magn.point_group_number  "2.1.3"
_cell_length_a                 4.27580
_cell_length_b                 10.75820
_cell_length_c                 4.03370
_cell_angle_alpha              90.00
_cell_angle_beta               90.00
_cell_angle_gamma              90.00

loop_
_space_group_symop_magn_operation.id
_space_group_symop_magn_operation.xyz
1 x,y,z,+1 
2 -x,-y,-z,+1 

loop_
_space_group_symop_magn_centering.id
_space_group_symop_magn_centering.xyz
1 x,y,z,+1 
2 x+1/2,y+1/2,z,+1 

loop_
_atom_site_label
_atom_site_type_symbol
_atom_site_fract_x
_atom_site_fract_y
_atom_site_fract_z
_atom_site_occupancy
Ho1 Ho 0.00000 0.35940 0.25000 1
Ga1 Ga 0.00000 0.07510 0.25000 1

loop_
_atom_site_moment.label
_atom_site_moment.crystalaxis_x
_atom_site_moment.crystalaxis_y
_atom_site_moment.crystalaxis_z
_atom_site_moment.symmform
_atom_site_moment.magnitude
_atom_site_moment.spherical_azimuthal
_atom_site_moment.spherical_polar
Ho1 2.89 3.32 7.62 mx,my,mz 8.8(2) 49(4) 30(2)

