#\#CIF_2.0
# Created by the Bilbao Crystallographic Server
# http://www.cryst.ehu.es
# Date: 16/10/2020 

data_5yOhtAoR
_audit_creation_date            2020-10-16
_audit_creation_method          "Bilbao Crystallographic Server"

_citation_journal_abbrev        "Journal of Magnetism and Magnetic Materials"
_citation_journal_volume        360
_citation_page_first            200
_citation_page_last             204
_citation_article_id            ?
_citation_year                  2014
_citation_DOI                   10.1016/j.jmmm.2014.02.038

loop_
_citation_author_name
"A. V. Morozkin"
"J. Yao"
"F. Yuan"
"Y. Mozharivsky"
"O. Isnard"

_atomic_positions_source_database_code_ICSD  191676
_atomic_positions_source_other               .

_transition_temperature  43
_experiment_temperature  1.5

loop_
_irrep_id
_irrep_dimension
_irrep_small_dimension
_irrep_direction_type
_irrep_action
_irrep_modes_number
_irrep_presence
mGM3+  1  1  .  primary  6  .

_exptl_crystal_magnetic_properties_details
;
NPD
Position structure, except lattice parameters, from a determination at 298K
FM along a
;

_active_magnetic_irreps_details
;
1k magnetic structure
k-maximal magnetic symmetry (8 possible)
1-dim irrep as primary
The MSG assigned in the reference is not correct. 
;

_parent_space_group.name_H-M_alt  'P n m a'
_parent_space_group.IT_number                       62
_parent_space_group.transform_Pp_abc  'a,b,c;0,0,0'

loop_
_parent_propagation_vector.id
_parent_propagation_vector.kxkykz
k1 [0 0 0]

_parent_space_group.child_transform_Pp_abc  'a,b,c;0,0,0'
_space_group_magn.transform_BNS_Pp_abc  'a,b,c;0,0,0'



_space_group_magn.number_BNS  62.447
_space_group_magn.name_BNS  "P n m' a'"
_cell_length_a             11.248(2)
_cell_length_b             4.1409(5)
_cell_length_c             11.111(2)
_cell_angle_alpha          90.00
_cell_angle_beta           90.00
_cell_angle_gamma          90.00

loop_
_space_group_symop_magn_operation.id
_space_group_symop_magn_operation.xyz
1 x,y,z,+1 
2 x+1/2,-y+1/2,-z+1/2,+1 
3 -x,-y,-z,+1 
4 -x+1/2,y+1/2,z+1/2,+1 
5 -x,y+1/2,-z,-1 
6 -x+1/2,-y,z+1/2,-1 
7 x,-y+1/2,z,-1 
8 x+1/2,y,-z+1/2,-1 

loop_
_space_group_symop_magn_centering.id
_space_group_symop_magn_centering.xyz
1 x,y,z,+1 

loop_
_atom_site_label
_atom_site_type_symbol
_atom_site_fract_x
_atom_site_fract_y
_atom_site_fract_z
Ho1 Ho 0.37750 0.25000 0.44110
Ho2 Ho 0.05320 0.25000 0.37460
Ho3 Ho 0.21170 0.25000 0.70070
Ni1 Ni 0.12430 0.25000 0.12790
Ge1 Ge 0.48130 0.25000 0.68050
Ge2 Ge 0.30930 0.25000 0.00770

loop_
_atom_site_moment.label
_atom_site_moment.crystalaxis_x
_atom_site_moment.crystalaxis_y
_atom_site_moment.crystalaxis_z
_atom_site_moment.symmform
_atom_site_moment.magnitude
Ho1 8.0(2) 0.00000 -4.3(1) mx,0,mz 9.1(2)
Ho2 4.8(1) 0.00000 7.7(2)  mx,0,mz 9.1
Ho3 8.0    0.00000 -4.3    mx,0,mz 9.1
Ni1 0.0    0.00000  0.0    mx,0,mz 0.0


