#\#CIF_2.0
# Created by the Bilbao Crystallographic Server
# http://www.cryst.ehu.es
# Date: 03/09/2021 

data_5yOhtAoR
_audit_creation_date            2021-09-03
_audit_creation_method          "Bilbao Crystallographic Server"

_citation_journal_abbrev        "PHYSICAL REVIEW B"
_citation_journal_volume        104
_citation_page_first            .
_citation_page_last             .
_citation_article_id            054411
_citation_year                  2021
_citation_DOI                   10.1103/PhysRevB.104.054411

loop_
_citation_author_name
"J. Padilla-Pantoja"
"A. Romaguera"
"X. Zhang"
"J. Herrero-Martin"
"F. Fauth"
"J. Blasco"
"J. L. Garcia-Munoz"

_atomic_positions_source_database_code_ICSD  .
_atomic_positions_source_other               .

_transition_temperature  126
_experiment_temperature  10

loop_
_irrep_id
_irrep_dimension
_irrep_small_dimension
_irrep_direction_type
_irrep_action
_irrep_modes_number
_irrep_presence
mGM5+  2  2  special  primary  2  .

_exptl_crystal_magnetic_properties_details
;
NPD
FM along the (1,1,0) direcion of the parent space group
;

_active_magnetic_irreps_details
;
1k magnetic structure
k-maximal magnetic symmetry
2-dim irrep along a special direction as primary
;

_parent_space_group.name_H-M_alt  'I 4/m c m'
_parent_space_group.IT_number                       140
_parent_space_group.transform_Pp_abc  'a,b,c;0,0,0'

loop_
_parent_propagation_vector.id
_parent_propagation_vector.kxkykz
k1 [0 0 0]

_parent_space_group.child_transform_Pp_abc  'a,b,c;0,0,0'
_space_group_magn.transform_BNS_Pp_abc  'c,a-b,a+b;1/2,0,0'

_space_group_magn.number_BNS  69.524
_space_group_magn.name_BNS  "F m' m' m"
_cell_length_a             5.3723(3)
_cell_length_b             5.37230(3)
_cell_length_c             7.69450(5)
_cell_angle_alpha          90.00
_cell_angle_beta           90.00
_cell_angle_gamma          90.00

loop_
_space_group_symop_magn_operation.id
_space_group_symop_magn_operation.xyz
1 x,y,z,+1 
2 y+1/2,x+1/2,-z,+1 
3 -x,-y,-z,+1 
4 -y+1/2,-x+1/2,z,+1 
5 -x,-y,z,-1 
6 -y+1/2,-x+1/2,-z,-1 
7 x,y,-z,-1 
8 y+1/2,x+1/2,z,-1 

loop_
_space_group_symop_magn_centering.id
_space_group_symop_magn_centering.xyz
1 x,y,z,+1 
2 x+1/2,y+1/2,z+1/2,+1 

loop_
_atom_site_label
_atom_site_type_symbol
_atom_site_fract_x
_atom_site_fract_y
_atom_site_fract_z
_atom_site_occupancy
Pr1 Pr 0.00000 0.50000 0.25000  0.5
Sr1 Sr 0.00000 0.50000 0.25000  0.4
Ca1 Ca 0.00000 0.50000 0.25000  0.1
Co1 Co 0.00000 0.00000 0.00000  1
O1 O 0.00000 0.00000 0.25000    1
O2_1 O 0.2809(3) 0.7809(3) 0.00000  1
O2_2 O  0.2191(3) 0.2809(3) 0.00000 1

loop_
_atom_site_moment.label
_atom_site_moment.crystalaxis_x
_atom_site_moment.crystalaxis_y
_atom_site_moment.crystalaxis_z
_atom_site_moment.symmform
_atom_site_moment.magnitude
Co1 1.26 1.26 0.0  mx,my,0  1.78(3)

