#\#CIF_2.0
# Created by the Bilbao Crystallographic Server
# http://www.cryst.ehu.es
# Date: 09/28/2021 20:33:34

data_5yOhtAoR
_audit_creation_date            2021-09-28
_audit_creation_method          "Bilbao Crystallographic Server"

_chemical_name_systematic
;
;
_chemical_name_common                    ?
_chemical_formula_moiety                 ?
_chemical_formula_structural             ?
_chemical_formula_analytical             ?
_chemical_formula_iupac                  ?
_chemical_formula_sum                    "Ba1 Co1 Si1 O4"
_chemical_formula_weight                 ?
_chemical_melting_point                  ?
_chemical_compound_source                ?
_chemical_absolute_configuration         ?


_citation_journal_abbrev        "NATURE COMMUNICATIONS"
_citation_journal_volume        12
_citation_page_first            .
_citation_page_last             .
_citation_article_id            5339
_citation_year                  2021
_citation_DOI                   10.1038/s41467-021-25657-6

loop_
_citation_author_name
"L. Ding"
"X. Xu"
"H. O. Jeschke"
"X. Bai"
"E. Feng"
"A. S. Alemayehu"
"J. Kim"
"F.-T. Huang"
"Q. Zhang"
"X. Ding"
"N. Harrison"
"V. Zapf"
"D. Khomskii"
"I. I. Mazin"
"S.-W. Cheong"
"H. Cao"

_temperature_position_structure         10
_temperature_atom_positions             .
_temperature_non-magn_atom_positions    .
_temperature_cell_parameters            .

_atomic_positions_source_database_code_ICSD  .
_atomic_positions_source_other               .

_transition_temperature     3.2
_experiment_temperature     1.5

loop_
_irrep_id
_irrep_dimension
_irrep_small_dimension
_irrep_direction_type
_irrep_action
_irrep_modes_number
_irrep_presence
mGM1 1 1 .  primary  3  .

_exptl_crystal_magnetic_properties_details
;
NSD
Magnetic phase reported under a magnetic fiel of 2T along c . See #1.0.49 for the structure at zero field.
Position structure from a determination at 10K.
Information in the original reference is incomplete. The model here has been constructed with some asumptions inferred from the figures in the paper. Some misinterpretation may have occurred.
The Co moment magnitude is not given. Here it is assumed to be equal to that reported at zero field.
FM along c
;

_active_magnetic_irreps_details
;
1k magnetic structure
k-maximal magnetic symmetry
1-dim irrep as primary
;

_parent_space_group.name_H-M_alt  'P 6_3'
_parent_space_group.IT_number                       173
_parent_space_group.transform_Pp_abc  'a,b,c;0,0,0'

loop_
_parent_propagation_vector.id
_parent_propagation_vector.kxkykz
k1 [0 0 0]

_parent_space_group.child_transform_Pp_abc  'a,b,c;0,0,0'
_space_group_magn.transform_BNS_Pp_abc  'a,b,c;0,0,0'

_space_group_magn.number_BNS  173.129
_space_group_magn.name_BNS  "P 6_3"
_space_group_magn.point_group_name  "6"
_space_group_magn.point_group_number  "21.1.76"
_cell_length_a                 9.11240
_cell_length_b                 9.11240
_cell_length_c                 8.64470
_cell_angle_alpha              90.00
_cell_angle_beta               90.00
_cell_angle_gamma              120.00

loop_
_space_group_symop_magn_operation.id
_space_group_symop_magn_operation.xyz
1 x,y,z,+1 
2 x-y,x,z+1/2,+1 
3 -y,x-y,z,+1 
4 -x,-y,z+1/2,+1 
5 -x+y,-x,z,+1 
6 y,-x+y,z+1/2,+1 

loop_
_space_group_symop_magn_centering.id
_space_group_symop_magn_centering.xyz
1 x,y,z,+1 

loop_
_atom_site_label
_atom_site_type_symbol
_atom_site_fract_x
_atom_site_fract_y
_atom_site_fract_z
_atom_site_occupancy
Ba1 Ba 0.00000 0.00000 0.25000 1
Ba2 Ba 0.33333 0.66667 0.22110 1
Ba3 Ba 0.33333 0.66667 0.72100 1
Co1 Co 0.68100 0.67600 0.53000 1
Si1 Si 0.66000 0.98750 0.43100 1
O1 O 0.76580 0.91180 0.52270 1
O2 O 0.46470 0.90290 0.49040 1
O3 O 0.76110 0.19270 0.44700 1
O4 O 0.72450 0.65450 0.75130 1

loop_
_atom_site_moment.label
_atom_site_moment.crystalaxis_x
_atom_site_moment.crystalaxis_y
_atom_site_moment.crystalaxis_z
_atom_site_moment.symmform
_atom_site_moment.magnitude
_atom_site_moment.spherical_azimuthal
_atom_site_moment.spherical_polar
Co1 2.71 0.0 0.0 mx,my,mz 2.71 ? ?

