#\#CIF_2.0
# Created by the Bilbao Crystallographic Server
# http://www.cryst.ehu.es
# Date: 09/29/2021 17:04:04

data_5yOhtAoR
_audit_creation_date            2021-09-29
_audit_creation_method          "Bilbao Crystallographic Server"

_chemical_name_systematic
;
;
_chemical_name_common                    ?
_chemical_formula_moiety                 ?
_chemical_formula_structural             ?
_chemical_formula_analytical             ?
_chemical_formula_iupac                  ?
_chemical_formula_sum                    "Ce5 Te O8"
_chemical_formula_weight                 ?
_chemical_melting_point                  ?
_chemical_compound_source                ?
_chemical_absolute_configuration         ?


_citation_journal_abbrev        "Inorg. Chem."
_citation_journal_volume        60
_citation_page_first            13990
_citation_page_last             14001
_citation_article_id            .
_citation_year                  2021
_citation_DOI                   10.1021/acs.inorgchem.1c01131

loop_
_citation_author_name
"S. Podchezertsev"
"N. Barrier"
"A. Pautrat"
"E. Suard"
"M. Retuerto"
"J. A. Alonso"
"M. T. Fernandez-Diaz"
"J. Rodriguez-Carvajal"

_temperature_position_structure         293
_temperature_atom_positions             .
_temperature_non-magn_atom_positions    .
_temperature_cell_parameters            .

_atomic_positions_source_database_code_ICSD  .
_atomic_positions_source_other               .

_transition_temperature     40
_experiment_temperature     1.7

loop_
_irrep_id
_irrep_dimension
_irrep_small_dimension
_irrep_direction_type
_irrep_action
_irrep_modes_number
_irrep_presence
mGM4+ 3 3 special primary 3 .

_exptl_crystal_magnetic_properties_details
;
NPD
Position structure from a determination at 293K
An ordered polymorph with two incommensurate magnetic phases is also reported.
Ferrimagnetic along c 
;

_active_magnetic_irreps_details
;
1k magnetic structure
k-maximal symmetry
3-dim along a special direction as primary
;

_parent_space_group.name_H-M_alt  'F d -3 m'
_parent_space_group.IT_number                       227
_parent_space_group.transform_Pp_abc  'a,b,c;0,0,0'

loop_
_parent_propagation_vector.id
_parent_propagation_vector.kxkykz
k1 [0 0 0]

_parent_space_group.child_transform_Pp_abc  'a,b,c;1/8,1/8,1/8'
_space_group_magn.transform_BNS_Pp_abc  '1/2a+1/2b,-1/2a+1/2b,c;1/8,-1/8,1/8'

_space_group_magn.number_BNS  141.557
_space_group_magn.name_BNS  "I 4_1/a m' d' "
_space_group_magn.point_group_name  "4/mm'm'"
_space_group_magn.point_group_number  "15.6.58"
_cell_length_a                 8.55720
_cell_length_b                 8.55720
_cell_length_c                 8.55720
_cell_angle_alpha              90.00
_cell_angle_beta               90.00
_cell_angle_gamma              90.00

loop_
_space_group_symop_magn_operation.id
_space_group_symop_magn_operation.xyz
1 x,y,z,+1 
2 y+1/4,-x+1/4,z+3/4,+1 
3 -y+1/4,x+1/4,z+3/4,+1 
4 -x+1/2,-y+1/2,z,+1 
5 -x+1/4,-y+3/4,-z+1/4,+1 
6 -y,x+1/2,-z+1/2,+1 
7 y,-x+1/2,-z+1/2,+1 
8 x+1/4,y+3/4,-z+1/4,+1 
9 y+3/4,x+1/4,-z+1/4,-1 
10 -y+3/4,-x+1/4,-z+1/4,-1 
11 x+1/2,-y,-z+1/2,-1 
12 -x+1/2,y,-z+1/2,-1 
13 -y+1/2,-x+1/2,z,-1 
14 y,x,z,-1 
15 -x+3/4,y+3/4,z+3/4,-1 
16 x+3/4,-y+3/4,z+3/4,-1 

loop_
_space_group_symop_magn_centering.id
_space_group_symop_magn_centering.xyz
1 x,y,z,+1 
2 x,y+1/2,z+1/2,+1 
3 x+1/2,y,z+1/2,+1 
4 x+1/2,y+1/2,z,+1 

loop_
_atom_site_label
_atom_site_type_symbol
_atom_site_fract_x
_atom_site_fract_y
_atom_site_fract_z
_atom_site_occupancy
Co1 Co 0.00000 0.00000 0.00000 1
Co2 Co 0.37500 0.37500 0.37500 0.75
Te1 Te 0.37500 0.37500 0.37500 0.25
O1 O 0.13495 0.13495 0.13495 1

loop_
_atom_site_moment.label
_atom_site_moment.crystalaxis_x
_atom_site_moment.crystalaxis_y
_atom_site_moment.crystalaxis_z
_atom_site_moment.symmform
_atom_site_moment.magnitude
_atom_site_moment.spherical_azimuthal
_atom_site_moment.spherical_polar
Co1 0.0 0.0 -1.94(6) 0,0,mz 1.94(6) ? ?
Co2 0.0 0.0 2.39(7) mx,mx,mz 2.39(7) ? ?

