#\#CIF_2.0
# Created by the Bilbao Crystallographic Server
# http://www.cryst.ehu.es
# Date: 10/02/2021

data_5yOhtAoR
_audit_creation_date            2021-10-02
_audit_creation_method          "Bilbao Crystallographic Server"

_chemical_name_systematic
;
;
_chemical_name_common                    ?
_chemical_formula_moiety                 ?
_chemical_formula_structural             ?
_chemical_formula_analytical             ?
_chemical_formula_iupac                  ?
_chemical_formula_sum                    "Tb Ni4 B"
_chemical_formula_weight                 ?
_chemical_melting_point                  ?
_chemical_compound_source                ?
_chemical_absolute_configuration         ?


_citation_journal_abbrev        "J. Solid State Chem."
_citation_journal_volume        202
_citation_page_first            15
_citation_page_last             21
_citation_article_id            .
_citation_year                  2013
_citation_DOI                   10.1016/j.jssc.2013.03.003

loop_
_citation_author_name
"E. Alleno"
"C. Mazumdar"

_temperature_position_structure         293
_temperature_atom_positions             .
_temperature_non-magn_atom_positions    .
_temperature_cell_parameters            .

_atomic_positions_source_database_code_ICSD  156975
_atomic_positions_source_other               .

_transition_temperature     18.1
_experiment_temperature     1.6

loop_
_irrep_id
_irrep_dimension
_irrep_small_dimension
_irrep_direction_type
_irrep_action
_irrep_modes_number
_irrep_presence
mGM2+ 1 1 . primary 2 .
mGM6+ 2 2 special primary 2 .

_exptl_crystal_magnetic_properties_details
;
NPD
Position structure, including cell parameters from a room temperature determination from another study.
FM on the plane ac
The moment component on the basal plane could not be determined. Here a direction the ab plane corresponding to a maximal symmetry has been arbitrarily chosen.
;

_active_magnetic_irreps_details
;
1k magnetic structure
Two irreps are involved as primary. This means that from the viewpoint of Landau theory two order parameters are involved in the magnetic ordering.
;

_parent_space_group.name_H-M_alt  'P 6/m m m'
_parent_space_group.IT_number                       191
_parent_space_group.transform_Pp_abc  'a,b,c;0,0,0'

loop_
_parent_propagation_vector.id
_parent_propagation_vector.kxkykz
k1 [0 0 0]

_parent_space_group.child_transform_Pp_abc  'a,b,c;0,0,0'
_space_group_magn.transform_BNS_Pp_abc  'a,a+2b,c;0,0,0'

_space_group_magn.number_BNS  12.62
_space_group_magn.name_BNS  "C 2'/m'"
_space_group_magn.point_group_name  "2'/m'"
_space_group_magn.point_group_number  "5.5.16"
_cell_length_a                 4.99430
_cell_length_b                 4.99430
_cell_length_c                 6.94840
_cell_angle_alpha              90.00
_cell_angle_beta               90.00
_cell_angle_gamma              120.00

loop_
_space_group_symop_magn_operation.id
_space_group_symop_magn_operation.xyz
1 x,y,z,+1 
2 -x,-y,-z,+1 
3 -x+y,y,-z,-1 
4 x-y,-y,z,-1 

loop_
_space_group_symop_magn_centering.id
_space_group_symop_magn_centering.xyz
1 x,y,z,+1 

loop_
_atom_site_label
_atom_site_type_symbol
_atom_site_fract_x
_atom_site_fract_y
_atom_site_fract_z
_atom_site_occupancy
Tb1 Tb 0.00000 0.00000 0.00000 1
Tb2 Tb 0.00000 0.00000 0.50000 1
Ni1 Ni 0.33333 0.66667 0.00000 1
Ni2_1 Ni 0.50000 0.00000 0.29110 1
Ni2_2 Ni 0.00000 0.50000 0.29110 1
B1 B 0.33333 0.66667 0.50000 1

loop_
_atom_site_moment.label
_atom_site_moment.crystalaxis_x
_atom_site_moment.crystalaxis_y
_atom_site_moment.crystalaxis_z
_atom_site_moment.symmform
_atom_site_moment.magnitude
_atom_site_moment.spherical_azimuthal
_atom_site_moment.spherical_polar
Tb1 5.03 0.0 2.68 mx,0,mz 5.7(1) 0 62(2)
Tb2 5.03 0.0 2.68 mx,0,mz 5.7(1) 0 62(2)

