#\#CIF_2.0
# Created by the Bilbao Crystallographic Server
# http://www.cryst.ehu.es
# Date: 10/23/2021

data_5yOhtAoR
_audit_creation_date            2021-10-23
_audit_creation_method          "Bilbao Crystallographic Server"

_chemical_name_systematic
;
;
_chemical_name_common                    ?
_chemical_formula_moiety                 ?
_chemical_formula_structural             ?
_chemical_formula_analytical             ?
_chemical_formula_iupac                  ?
_chemical_formula_sum                    "Ce Fe O3"
_chemical_formula_weight                 ?
_chemical_melting_point                  ?
_chemical_compound_source                ?
_chemical_absolute_configuration         ?

_citation_journal_abbrev        "J. Phys.: Condens. Matter"
_citation_journal_volume        33
_citation_page_first            .
_citation_page_last             .
_citation_article_id            215802
_citation_year                  2021
_citation_DOI                   10.1088/1361-648X/abe64a

loop_
_citation_author_name
"C. Ritter"
"M. Ceretti"
"W. Paulus"

_temperature_position_structure         .
_temperature_atom_positions             .
_temperature_non-magn_atom_positions    .
_temperature_cell_parameters            .

_atomic_positions_source_database_code_ICSD  .
_atomic_positions_source_other               .

_transition_temperature     220
_experiment_temperature       2

loop_
_irrep_id
_irrep_dimension
_irrep_small_dimension
_irrep_direction_type
_irrep_action
_irrep_modes_number
_irrep_presence
mGM1+ 1 1 . primary 4 .

_exptl_crystal_magnetic_properties_details
;
NPD
Non-standard setting Pbnm of parent
Above 228K (up to 720K) a spin reorientation transition takes place (see #0.757)
The structure model includes small deviations of the O sites from stoichiometric occupancies (with the O2 occupancy larger than 1), which are not included here.
Some Ce magnetic ordering is argued to be present below 35K
The relative sign of the Fe and Ce spins is not specified in the paper. Here the relative sign corresponding to the figure of the structure of the paper has been assumed.
;

_active_magnetic_irreps_details
;
1k magnetic structure
k-maximal magnetic symmetry
1-dim irrep
;

_parent_space_group.name_H-M_alt  'P b n m'
_parent_space_group.IT_number                       62
_parent_space_group.transform_Pp_abc  'b,c,a;0,0,0'

loop_
_parent_propagation_vector.id
_parent_propagation_vector.kxkykz
k1 [0 0 0]

_parent_space_group.child_transform_Pp_abc  'a,b,c;0,0,0'
_space_group_magn.transform_BNS_Pp_abc  'b,c,a;0,0,0'

_space_group_magn.number_BNS  62.441
_space_group_magn.name_BNS  "P n m a"
_space_group_magn.point_group_name  "mmm"
_space_group_magn.point_group_number  "8.1.24"
_cell_length_a                 5.51240
_cell_length_b                 5.55990
_cell_length_c                 7.79820
_cell_angle_alpha              90.00
_cell_angle_beta               90.00
_cell_angle_gamma              90.00

loop_
_space_group_symop_magn_operation.id
_space_group_symop_magn_operation.xyz
1 x,y,z,+1 
2 -x+1/2,y+1/2,-z+1/2,+1 
3 -x,-y,z+1/2,+1 
4 x+1/2,-y+1/2,-z,+1 
5 -x,-y,-z,+1 
6 x+1/2,-y+1/2,z+1/2,+1 
7 x,y,-z+1/2,+1 
8 -x+1/2,y+1/2,z,+1 

loop_
_space_group_symop_magn_centering.id
_space_group_symop_magn_centering.xyz
1 x,y,z,+1 

loop_
_atom_site_label
_atom_site_type_symbol
_atom_site_fract_x
_atom_site_fract_y
_atom_site_fract_z
_atom_site_occupancy
Ce1 Ce 0.49170 0.46140 0.75000 1
Fe1 Fe 0.50000 0.00000 0.00000 1
O1 O 0.58110 0.01870 0.75000 1
O2 O 0.71160 0.28940 0.04300 1

loop_
_atom_site_moment.label
_atom_site_moment.crystalaxis_x
_atom_site_moment.crystalaxis_y
_atom_site_moment.crystalaxis_z
_atom_site_moment.symmform
_atom_site_moment.magnitude
_atom_site_moment.spherical_azimuthal
_atom_site_moment.spherical_polar
Ce1 0.0 0.0 -0.11 0,0,mz 0.11 ? ?
Fe1 0.0 4.17(2). 0.0 mx,my,mz 4.17(2) ? ?

