#\#CIF_2.0
# Created by the Bilbao Crystallographic Server
# http://www.cryst.ehu.es
# Date: 10/29/2021 

data_5yOhtAoR
_audit_creation_date            2021-10-29
_audit_creation_method          "Bilbao Crystallographic Server"

_chemical_name_systematic
;
;
_chemical_name_common                    ?
_chemical_formula_moiety                 ?
_chemical_formula_structural             ?
_chemical_formula_analytical             ?
_chemical_formula_iupac                  ?
_chemical_formula_sum                    "Sr Fe2 Se2 O"
_chemical_formula_weight                 ?
_chemical_melting_point                  ?
_chemical_compound_source                ?
_chemical_absolute_configuration         ?


_citation_journal_abbrev        "Eur. J. Inorg. Chem."
_citation_journal_volume        ?
_citation_page_first            3829
_citation_page_last             3833
_citation_article_id            .
_citation_year                  2017
_citation_DOI                   10.1002/ejic.201700684

loop_
_citation_author_name
"H. Guo"
"M. T. Fernandez-Diaz"
"A. C. Komarek"
"S. Huh"
"P. Adler"
"M. Valldor"

_temperature_position_structure         .
_temperature_atom_positions             .
_temperature_non-magn_atom_positions    .
_temperature_cell_parameters            .

_atomic_positions_source_database_code_ICSD   259331
_atomic_positions_source_other                 .

_transition_temperature     228
_experiment_temperature     10

loop_
_irrep_id
_irrep_dimension
_irrep_small_dimension
_irrep_direction_type
_irrep_action
_irrep_modes_number
_irrep_presence
mGM1- 1 1 . primary 2 .

_exptl_crystal_magnetic_properties_details
;
NPD
The negative sign of the z component of the Fe1 spin has been inferred from a figure in the paper. It is not specified in the report. 
;

_active_magnetic_irreps_details
;
1k magnetic structure
k-maximal magnetic symmetry
1-dim irrep
;

_parent_space_group.name_H-M_alt  'P m m n'
_parent_space_group.IT_number                       59
_parent_space_group.transform_Pp_abc  'a,b,c;0,0,0'

loop_
_parent_propagation_vector.id
_parent_propagation_vector.kxkykz
k1 [0 0 0]

_parent_space_group.child_transform_Pp_abc  'a,b,c;0,0,0'
_space_group_magn.transform_BNS_Pp_abc  'a,b,c;0,0,0'

_space_group_magn.number_BNS  59.411
_space_group_magn.name_BNS  "P m' m' n'"
_space_group_magn.point_group_name  "m'm'm'"
_space_group_magn.point_group_number  "8.5.28"
_cell_length_a                 3.9908(5)
_cell_length_b                 9.648(1)
_cell_length_c                 6.5308(8)
_cell_angle_alpha              90.00
_cell_angle_beta               90.00
_cell_angle_gamma              90.00

loop_
_space_group_symop_magn_operation.id
_space_group_symop_magn_operation.xyz
1 x,y,z,+1 
2 x+1/2,-y,-z,+1 
3 -x,y+1/2,-z,+1 
4 -x+1/2,-y+1/2,z,+1 
5 -x,-y,-z,-1 
6 -x+1/2,y,z,-1 
7 x,-y+1/2,z,-1 
8 x+1/2,y+1/2,-z,-1 

loop_
_space_group_symop_magn_centering.id
_space_group_symop_magn_centering.xyz
1 x,y,z,+1 

loop_
_atom_site_label
_atom_site_type_symbol
_atom_site_fract_x
_atom_site_fract_y
_atom_site_fract_z
_atom_site_occupancy
Sr1 Sr 0.25000 0.25000 0.001(1) 1
Fe1 Fe 0.25000 0.5865(4) 0.3801(5) 1
Se1 Se 0.25000 0.5495(2) 0.7507(3) 1
O1 O 0.25000 0.75000 0.225(1) 1

loop_
_atom_site_moment.label
_atom_site_moment.crystalaxis_x
_atom_site_moment.crystalaxis_y
_atom_site_moment.crystalaxis_z
_atom_site_moment.symmform
_atom_site_moment.magnitude
_atom_site_moment.spherical_azimuthal
_atom_site_moment.spherical_polar
Fe1 0.0 3.45(6) -0.2(1) 0,my,mz 3.46 ? ?

