#\#CIF_2.0
# Created by the Bilbao Crystallographic Server
# http://www.cryst.ehu.es
# Date: 10/31/2021 

data_5yOhtAoR
_audit_creation_date            2021-10-31
_audit_creation_method          "Bilbao Crystallographic Server"

_chemical_name_systematic
;
;
_chemical_name_common                    ?
_chemical_formula_moiety                 ?
_chemical_formula_structural             ?
_chemical_formula_analytical             ?
_chemical_formula_iupac                  ?
_chemical_formula_sum                    "Mn5 P4 O20 H10"
_chemical_formula_weight                 ?
_chemical_melting_point                  ?
_chemical_compound_source                ?
_chemical_absolute_configuration         ?

_citation_journal_abbrev        "Symmetry"
_citation_journal_volume        13
_citation_page_first            .
_citation_page_last             .
_citation_article_id            1688
_citation_year                  2021
_citation_DOI                   10.3390/sym13091688

loop_
_citation_author_name
"S. Park"
"A. Hartl"
"D. Sheptyakov"
"M. Hoelzel"
"A. Arauzo"

_temperature_position_structure         .
_temperature_atom_positions             .
_temperature_non-magn_atom_positions    .
_temperature_cell_parameters            .

_atomic_positions_source_database_code_ICSD  .
_atomic_positions_source_other               .

_transition_temperature     6.17
_experiment_temperature     6.1

loop_
_irrep_id
_irrep_dimension
_irrep_small_dimension
_irrep_direction_type
_irrep_action
_irrep_modes_number
_irrep_presence
mGM2+ 1 1 . primary 8 .

_exptl_crystal_magnetic_properties_details
;
NPD
Fully deuterated material
Below 1.86K an incommensurate magnetic phase is reported (see #1.1.134)
Ferrimagnetic on the plane ac
The structure is reported at several temperatures with a significant reorientation of the spins (see other entries).
;

_active_magnetic_irreps_details
;
1k magnetic structure
k-maximal magnetic symmetry
1-dim irrep
;

_parent_space_group.name_H-M_alt  'C 2/c'
_parent_space_group.IT_number                       15
_parent_space_group.transform_Pp_abc  'a,b,c;0,0,0'

loop_
_parent_propagation_vector.id
_parent_propagation_vector.kxkykz
k1 [0 0 0]

_parent_space_group.child_transform_Pp_abc  'a,b,c;0,0,0'
_space_group_magn.transform_BNS_Pp_abc  'a,b,c;0,0,0'

_space_group_magn.number_BNS  15.89
_space_group_magn.name_BNS  "C 2'/c' "
_space_group_magn.point_group_name  "2'/m'"
_space_group_magn.point_group_number  "5.5.16"
_cell_length_a                 17.5986(6)
_cell_length_b                 9.1315(3)
_cell_length_c                 9.5068(3)
_cell_angle_alpha              90.00
_cell_angle_beta               96.391(1)
_cell_angle_gamma              90.00

loop_
_space_group_symop_magn_operation.id
_space_group_symop_magn_operation.xyz
1 x,y,z,+1 
2 -x,-y,-z,+1 
3 -x,y,-z+1/2,-1 
4 x,-y,z+1/2,-1 

loop_
_space_group_symop_magn_centering.id
_space_group_symop_magn_centering.xyz
1 x,y,z,+1 
2 x+1/2,y+1/2,z,+1 

loop_
_atom_site_label
_atom_site_type_symbol
_atom_site_fract_x
_atom_site_fract_y
_atom_site_fract_z
_atom_site_occupancy
Mn1 Mn 0.00000 0.40440 0.25000 1
Mn2 Mn 0.32010 0.40740 0.18420 1
Mn3 Mn 0.32350 0.02810 0.13180 1
P1 P 0.41950 0.18690 0.40810 1
P2 P 0.15990 0.23860 0.12940 1
O1 O 0.51150 0.28310 0.08080 1
O2 O 0.42360 0.06780 0.29220 1
O3 O 0.34510 0.27220 0.36740 1
O4 O 0.08430 0.39080 0.44620 1
O5 O 0.33660 0.23500 0.03350 1
O6 O 0.20250 0.09850 0.17280 1
O7 O 0.20070 0.36410 0.21230 1
O8 O 0.07490 0.23160 0.15910 1
O9 O 0.24170 0.07640 0.47090 1
O10 O 0.07650 0.01470 0.35040 1
D1 D 0.02530 0.22290 0.01070 1
D2 D 0.26290 0.15210 0.41430 1
D3 D 0.20200 0.12690 0.52080 1
D4 D 0.06630 0.09570 0.28240 1
D5 D 0.46790 0.45240 0.14260 1

loop_
_atom_site_moment.label
_atom_site_moment.crystalaxis_x
_atom_site_moment.crystalaxis_y
_atom_site_moment.crystalaxis_z
_atom_site_moment.symmform
_atom_site_moment.magnitude
_atom_site_moment.spherical_azimuthal
_atom_site_moment.spherical_polar
Mn1 2.0(2) 0.0 -1.8(4) mx,0,mz 2.9(5) ? ?
Mn2 2.47(2) 0.3(4) -1.4(2) mx,my,mz 3.0(5) ? ?
Mn3 3.0(2) 0.2(3) 0.9(2) mx,my,mz 3.0(4) ? ?

