#\#CIF_2.0
# Created by the Bilbao Crystallographic Server
# http://www.cryst.ehu.es
# Date: 11/11/2021

data_5yOhtAoR
_audit_creation_date            2021-11-11
_audit_creation_method          "Bilbao Crystallographic Server"

_chemical_name_systematic
;
;
_chemical_name_common                    ?
_chemical_formula_moiety                 ?
_chemical_formula_structural             ?
_chemical_formula_analytical             ?
_chemical_formula_iupac                  ?
_chemical_formula_sum                    "Nd Mn Si2"
_chemical_formula_weight                 ?
_chemical_melting_point                  ?
_chemical_compound_source                ?
_chemical_absolute_configuration         ?


_citation_journal_abbrev        "Journal of Magnetism and Magnetic Materials"
_citation_journal_volume        86
_citation_page_first            349
_citation_page_last             362
_citation_article_id            .
_citation_year                  1990
_citation_DOI                   10.1016/0304-8853(90)90143-E

loop_
_citation_author_name
"B. Malaman"
"G. Venturini"
"L. Pontonnier"
"D. Fruchart"

_temperature_position_structure         300
_temperature_atom_positions             .
_temperature_non-magn_atom_positions    .
_temperature_cell_parameters            .

_atomic_positions_source_database_code_ICSD  643055
_atomic_positions_source_other               .

_transition_temperature     40
_experiment_temperature     2

loop_
_irrep_id
_irrep_dimension
_irrep_small_dimension
_irrep_direction_type
_irrep_action
_irrep_modes_number
_irrep_presence
mGM4+ 1 1 . primary 2 .
mGM2+ 1 1 . primary 2 .

_exptl_crystal_magnetic_properties_details
;
NPD
Position structure from a determination at 300K.
Above 40K up to 441K a different phase with only Mn moments FM ordered along b is reported.
FM on the plane bc
;

_active_magnetic_irreps_details
;
1k magnetic structure
two irreps involved in the magnetic ordering
;

_parent_space_group.name_H-M_alt  'C m c m'
_parent_space_group.IT_number                       63
_parent_space_group.transform_Pp_abc  'a,b,c;0,0,0'

loop_
_parent_propagation_vector.id
_parent_propagation_vector.kxkykz
k1 [0 0 0]

_parent_space_group.child_transform_Pp_abc  'a,b,c;0,0,0'
_space_group_magn.transform_BNS_Pp_abc  '-b,a,c;0,0,0'

_space_group_magn.number_BNS  12.62
_space_group_magn.name_BNS  "C 2'/m'"
_space_group_magn.point_group_name  "2'/m'"
_space_group_magn.point_group_number  "5.5.16"
_cell_length_a                 4.07200
_cell_length_b                 17.48700
_cell_length_c                 4.01700
_cell_angle_alpha              90.00
_cell_angle_beta               90.00
_cell_angle_gamma              90.00

loop_
_space_group_symop_magn_operation.id
_space_group_symop_magn_operation.xyz
1 x,y,z,+1 
2 -x,-y,-z,+1 
3 x,-y,-z,-1 
4 -x,y,z,-1 

loop_
_space_group_symop_magn_centering.id
_space_group_symop_magn_centering.xyz
1 x,y,z,+1 
2 x+1/2,y+1/2,z,+1 

loop_
_atom_site_label
_atom_site_type_symbol
_atom_site_fract_x
_atom_site_fract_y
_atom_site_fract_z
_atom_site_occupancy
Nd1 Nd 0.00000 0.10100 0.25000 1
Mn1 Mn 0.00000 0.75000 0.25000 1
Si1 Si 0.00000 0.32600 0.25000 1
Si2 Si 0.00000 0.46500 0.25000 1

loop_
_atom_site_moment.label
_atom_site_moment.crystalaxis_x
_atom_site_moment.crystalaxis_y
_atom_site_moment.crystalaxis_z
_atom_site_moment.symmform
_atom_site_moment.magnitude
_atom_site_moment.spherical_azimuthal
_atom_site_moment.spherical_polar
Nd1 0.0 0.0 1.80(7) 0,my,mz  1.80(7) ? ?
Mn1 0.0 1.62(25) 1.62(25) 0,my,mz 2.29(20) ? ?

