#\#CIF_2.0
# Created by the Bilbao Crystallographic Server
# http://www.cryst.ehu.es
# Date: 02/06/2022

data_5yOhtAoR
_audit_creation_date            2022-02-06
_audit_creation_method          "Bilbao Crystallographic Server"

_chemical_name_systematic
;
;
_chemical_name_common                    ?
_chemical_formula_moiety                 ?
_chemical_formula_structural             ?
_chemical_formula_analytical             ?
_chemical_formula_iupac                  ?
_chemical_formula_sum                    "Mn Nb0.5 Ta0.5 O6"
_chemical_formula_weight                 ?
_chemical_melting_point                  ?
_chemical_compound_source                ?
_chemical_absolute_configuration         ?


_citation_journal_abbrev        "Acta Cryst. A"
_citation_journal_volume        32
_citation_page_first            587
_citation_page_last             591
_citation_article_id            .
_citation_year                  1976
_citation_DOI                   10.1107/S0567739476001253

loop_
_citation_author_name
"S. Klein"
"H. Weitzel"

_temperature_position_structure         293
_temperature_atom_positions             .
_temperature_non-magn_atom_positions    .
_temperature_cell_parameters            .

_atomic_positions_source_database_code_ICSD  318
_atomic_positions_source_other               .

_transition_temperature     <10
_experiment_temperature     2.2

loop_
_irrep_id
_irrep_dimension
_irrep_small_dimension
_irrep_direction_type
_irrep_action
_irrep_modes_number
_irrep_presence
mGM3- 1 1 . primary 2 .

_exptl_crystal_magnetic_properties_details
;
NSD 
Position structure from a determination at room temperature by another work
Transition temperature is not specified (below 10K)
Moment angle with respect to the a axis: 35.4 degrees
;

_active_magnetic_irreps_details
;
1k magnetic structure
k-maximal magnetic symmetry
1-dim irrep
;

_parent_space_group.name_H-M_alt  'P b c n'
_parent_space_group.IT_number                       60
_parent_space_group.transform_Pp_abc  'a,b,c;0,0,0'

loop_
_parent_propagation_vector.id
_parent_propagation_vector.kxkykz
k1 [0 0 0]

_parent_space_group.child_transform_Pp_abc  'a,b,c;0,0,0'
_space_group_magn.transform_BNS_Pp_abc  'a,b,c;0,0,0'

_space_group_magn.number_BNS  60.419
_space_group_magn.name_BNS  "P b' c n"
_space_group_magn.point_group_name  "m'mm"
_space_group_magn.point_group_number  "8.3.26"
_cell_length_a                 14.41800
_cell_length_b                 5.76000
_cell_length_c                 5.09900
_cell_angle_alpha              90.00
_cell_angle_beta               90.00
_cell_angle_gamma              90.00

loop_
_space_group_symop_magn_operation.id
_space_group_symop_magn_operation.xyz
1 x,y,z,+1 
2 x+1/2,-y+1/2,-z,+1 
3 x,-y,z+1/2,+1 
4 x+1/2,y+1/2,-z+1/2,+1 
5 -x,y,-z+1/2,-1 
6 -x+1/2,-y+1/2,z+1/2,-1 
7 -x,-y,-z,-1 
8 -x+1/2,y+1/2,z,-1 

loop_
_space_group_symop_magn_centering.id
_space_group_symop_magn_centering.xyz
1 x,y,z,+1 

loop_
_atom_site_label
_atom_site_type_symbol
_atom_site_fract_x
_atom_site_fract_y
_atom_site_fract_z
_atom_site_occupancy
Mn1 Mn 0.00000 0.17690 0.25000 1.
Nb1 Nb 0.16270 0.32330 0.76430 0.5
Ta1 Ta 0.16270 0.32330 0.76430 0.5
O1 O 0.09930 0.40190 0.44220 1.
O2 O 0.08280 0.11590 0.90220 1.
O3 O 0.25620 0.12660 0.59130 1.

loop_
_atom_site_moment.label
_atom_site_moment.crystalaxis_x
_atom_site_moment.crystalaxis_y
_atom_site_moment.crystalaxis_z
_atom_site_moment.symmform
_atom_site_moment.magnitude
_atom_site_moment.spherical_azimuthal
_atom_site_moment.spherical_polar
Mn1 3.75 0.0 2.66 mx,0,mz 4.6 ? ?

