#\#CIF_2.0
# Created by the Bilbao Crystallographic Server
# http://www.cryst.ehu.es
# Date: 10/23/2022

data_5yOhtAoR
_audit_creation_date            2022-10-23
_audit_creation_method          "Bilbao Crystallographic Server"

_chemical_name_systematic
;
;
_chemical_name_common                    ?
_chemical_formula_moiety                 ?
_chemical_form7ula_structural             ?
_chemical_formula_analytical             ?
_chemical_formula_iupac                  ?
_chemical_formula_sum                    "Ho5 Ni2 In4"
_chemical_formula_weight                 ?
_chemical_melting_point                  ?
_chemical_compound_source                ?
_chemical_absolute_configuration         ?


_citation_journal_abbrev        "J. Phys.: Condens. Matter"
_citation_journal_volume        2
_citation_page_first            .
_citation_page_last             .
_citation_article_id            476001
_citation_year                  2015
_citation_DOI                   10.1088/0953-8984/27/47/476001

loop_
_citation_author_name
"C. Ritter"
"A. Provino"
"P. Manfrinetti"
"V. K. Pecharsky"
"K. A. Gschneidner"
"S. K. Dhar"

_temperature_position_structure         300
_temperature_atom_positions             0
_temperature_non-magn_atom_positions    0
_temperature_cell_parameters            0

_atomic_positions_source_database_code_ICSD  .
_atomic_positions_source_other               .

_transition_temperature     20
_experiment_temperature     2

loop_
_irrep_id
_irrep_dimension
_irrep_small_dimension
_irrep_direction_type
_irrep_action
_irrep_modes_number
_irrep_presence
mGM2+ 1 1 . primary 3 .
mGM3+ 1 1 . primary 6 .

_exptl_crystal_magnetic_properties_details
;
NPD
Positional structure from a determination at 300K
FM on the plane ac
Another magnetic phase is reported between 31K and 20K
The relative sign of the arrangement along along c (mGM2+) and along a (mGM3+) may be given any of the two values, as they correspond to equivalent domain related structures.
;

_active_magnetic_irreps_details
;
1k magnetic structure
Two irreps involved as primary ones. This implies two order parameters in the Landau sense
;

_parent_space_group.name_H-M_alt  'P b a m'
_parent_space_group.IT_number                       55
_parent_space_group.transform_Pp_abc  'a,b,c;0,0,0'

loop_
_parent_propagation_vector.id
_parent_propagation_vector.kxkykz
k1 [0 0 0]

_parent_space_group.child_transform_Pp_abc  'a,b,c;0,0,0'
_space_group_magn.transform_BNS_Pp_abc  '-c,b,a;0,0,0'

_space_group_magn.number_BNS  14.79
_space_group_magn.name_BNS  "P 2_1'/c'"
_space_group_magn.point_group_name  "2'/m'"
_space_group_magn.point_group_number  "5.5.16"
_cell_length_a                 17.78230
_cell_length_b                 7.88620
_cell_length_c                 3.57350
_cell_angle_alpha              90.00
_cell_angle_beta               90.00
_cell_angle_gamma              90.00

loop_
_space_group_symop_magn_operation.id
_space_group_symop_magn_operation.xyz
1 x,y,z,+1 
2 -x,-y,-z,+1 
3 -x+1/2,y+1/2,-z,-1 
4 x+1/2,-y+1/2,z,-1 

loop_
_space_group_symop_magn_centering.id
_space_group_symop_magn_centering.xyz
1 x,y,z,+1 

loop_
_atom_site_label
_atom_site_type_symbol
_atom_site_fract_x
_atom_site_fract_y
_atom_site_fract_z
_atom_site_occupancy
Ho1 Ho 0.00000 0.00000 0.00000 1
Ho2 Ho 0.22060 0.24290 0.00000 1
Ho3 Ho 0.41500 0.12020 0.00000 1
Ni1 Ni 0.30370 0.02630 0.50000 1
In1 In 0.57000 0.20130 0.50000 1
In2 In 0.84890 0.07130 0.50000 1

loop_
_atom_site_moment.label
_atom_site_moment.crystalaxis_x
_atom_site_moment.crystalaxis_y
_atom_site_moment.crystalaxis_z
_atom_site_moment.symmform
_atom_site_moment.magnitude
_atom_site_moment.spherical_azimuthal
_atom_site_moment.spherical_polar
Ho1 -3.1(4) 0.0 -7.6(1) mx,my,mz 8.2(1) ? ?
Ho2 1.2(2) 0.0 0.0 mx,my,mz 1.2(2) ? ?
Ho3 -2.8(3) 0.0 -5.8(1) mx,my,mz 6.4(2) ? ?

