#\#CIF_2.0
# Created by the Bilbao Crystallographic Server
# http://www.cryst.ehu.es
# Date: 10/24/2022

data_5yOhtAoR
_audit_creation_date            2022-10-24
_audit_creation_method          "Bilbao Crystallographic Server"

_chemical_name_systematic
;
;
_chemical_name_common                    ?
_chemical_formula_moiety                 ?
_chemical_formula_structural             ?
_chemical_formula_analytical             ?
_chemical_formula_iupac                  ?
_chemical_formula_sum                    "Sr2 Sc1 Os1 O6"
_chemical_formula_weight                 ?
_chemical_melting_point                  ?
_chemical_compound_source                ?
_chemical_absolute_configuration         ?


_citation_journal_abbrev        "PHYSICAL REVIEW B"
_citation_journal_volume        91
_citation_page_first            .
_citation_page_last             .
_citation_article_id            100406(R)
_citation_year                  2015
_citation_DOI                   10.1103/PhysRevB.91.100406

loop_
_citation_author_name
"A. E. Taylor"
"R. Morrow"
"D. J. Singh"
"S. Calder"
"M. D. Lumsden"
"P. M. Woodward"
"A. D. Christianson"

_temperature_position_structure         10
_temperature_atom_positions             .
_temperature_non-magn_atom_positions    .
_temperature_cell_parameters            .

_atomic_positions_source_database_code_ICSD  253172
_atomic_positions_source_other               .

_transition_temperature     92
_experiment_temperature     3.5

loop_
_irrep_id
_irrep_dimension
_irrep_small_dimension
_irrep_direction_type
_irrep_action
_irrep_modes_number
_irrep_presence
mGM1+ 1 1 . primary 3 .

_exptl_crystal_magnetic_properties_details
;
NPD
Non-standar setting P2_1/n of parent space group
Positional structure from a determination at 10K
The direction of the spins is undetermined on the plane ab. The direction along a is an arbitrary choice. The direction along b implies the realization of the other possible k-maximal MSG (P2_1'/c'). 
FM along b. If the spins were along a, resulting in MSG P2_1'/c', FM would be symmetry allowed on the plane ac
;

_active_magnetic_irreps_details
;
1k magnetic structure
k-maximal magnetic symmetry
1-dim irrep
;

_parent_space_group.name_H-M_alt  'P 2_1/n'
_parent_space_group.IT_number                       14
_parent_space_group.transform_Pp_abc  'a,b,-a+c;0,0,0'

loop_
_parent_propagation_vector.id
_parent_propagation_vector.kxkykz
k1 [0 0 0]

_parent_space_group.child_transform_Pp_abc  'a,b,c;0,0,0'
_space_group_magn.transform_BNS_Pp_abc  'a,b,-a+c;0,0,0'

_space_group_magn.number_BNS  14.75
_space_group_magn.name_BNS  "P 2_1/c"
_space_group_magn.point_group_name  "2/m"
_space_group_magn.point_group_number  "5.1.12"
_cell_length_a                 5.6398
_cell_length_b                 5.6373
_cell_length_c                 7.9884
_cell_angle_alpha              90.00
_cell_angle_beta               90.22
_cell_angle_gamma              90.00

loop_
_space_group_symop_magn_operation.id
_space_group_symop_magn_operation.xyz
1 x,y,z,+1 
2 -x+1/2,y+1/2,-z+1/2,+1 
3 -x,-y,-z,+1 
4 x+1/2,-y+1/2,z+1/2,+1 

loop_
_space_group_symop_magn_centering.id
_space_group_symop_magn_centering.xyz
1 x,y,z,+1 

loop_
_atom_site_label
_atom_site_type_symbol
_atom_site_fract_x
_atom_site_fract_y
_atom_site_fract_z
_atom_site_occupancy
Sr1 Sr 0.004 0.9858 0.2506 1
Os1 Os 0.50000 0.00000 0.50000 1
Sc1 Sc 0.50000 0.00000 0.00000 1
O1 O 0.2202 0.2295 0.0270 1
O2 O 0.245 0.233 0.4757 1
O3 O 0.5443 0.006 0.2558 1

loop_
_atom_site_moment.label
_atom_site_moment.crystalaxis_x
_atom_site_moment.crystalaxis_y
_atom_site_moment.crystalaxis_z
_atom_site_moment.symmform
_atom_site_moment.magnitude
_atom_site_moment.spherical_azimuthal
_atom_site_moment.spherical_polar
Os1 1.6(1) 0.0 0.0 mx,my,mz 1.6(1) ? ?

