#\#CIF_2.0
# Created by the Bilbao Crystallographic Server
# http://www.cryst.ehu.es
# Date: 11/01/2022

data_5yOhtAoR
_audit_creation_date            2022-11-01
_audit_creation_method          "Bilbao Crystallographic Server"

_chemical_name_systematic
;
;
_chemical_name_common                    ?
_chemical_formula_moiety                 ?
_chemical_formula_structural             ?
_chemical_formula_analytical             ?
_chemical_formula_iupac                  ?
_chemical_formula_sum                    "Th1 Mn1 As1 N1"
_chemical_formula_weight                 ?
_chemical_melting_point                  ?
_chemical_compound_source                ?
_chemical_absolute_configuration         ?


_citation_journal_abbrev        "Inorg. Chem."
_citation_journal_volume        59
_citation_page_first            2937
_citation_page_last             2944
_citation_article_id            .
_citation_year                  2020
_citation_DOI                   10.1021/acs.inorgchem.9b03294

loop_
_citation_author_name
"F. Zhang"
"B. Li"
"Q. Ren"
"H. Mao"
"Y. Xia"
"B. Hu"
"Z. Liu"
"Z. Wang"
"Y. Shao"
"Z. Feng"
"S. Tan"
"Y. Sun"
"Z. Ren"
"Q. Jing"
"B. Liu"
"H. Luo"
"J. Ma"
"Y. Mei"
"C. Wang"
"G.-H. Cao"

_temperature_position_structure         .
_temperature_atom_positions             .
_temperature_non-magn_atom_positions    .
_temperature_cell_parameters            .

_atomic_positions_source_database_code_ICSD  .
_atomic_positions_source_other               .

_transition_temperature     ?
_experiment_temperature     4

loop_
_irrep_id
_irrep_dimension
_irrep_small_dimension
_irrep_direction_type
_irrep_action
_irrep_modes_number
_irrep_presence
mGM2- 1 1 . primary 1 .

_exptl_crystal_magnetic_properties_details
;
NPD
Transition temperature unknown
;

_active_magnetic_irreps_details
;
1k magnetic structure
k-maximal magnetic symmetry
1-dim irrep
;

_parent_space_group.name_H-M_alt  'P 4/n m m'
_parent_space_group.IT_number                       129
_parent_space_group.transform_Pp_abc  'a,b,c;0,0,0'

loop_
_parent_propagation_vector.id
_parent_propagation_vector.kxkykz
k1 [0 0 0]

_parent_space_group.child_transform_Pp_abc  'a,b,c;0,0,0'
_space_group_magn.transform_BNS_Pp_abc  'a,b,c;0,0,0'

_space_group_magn.number_BNS  129.416
_space_group_magn.name_BNS  "P 4'/n' m' m"
_space_group_magn.point_group_name  "4'/m'm'm"
_space_group_magn.point_group_number  "15.5.57"
_cell_length_a                 4.0764(2)
_cell_length_b                 4.0764(2)
_cell_length_c                 8.9298(5)
_cell_angle_alpha              90.00
_cell_angle_beta               90.00
_cell_angle_gamma              90.00

loop_
_space_group_symop_magn_operation.id
_space_group_symop_magn_operation.xyz
1 x,y,z,+1 
2 x+1/2,-y,-z,+1 
3 -x,y+1/2,-z,+1 
4 -x+1/2,-y+1/2,z,+1 
5 y+1/2,-x,-z,+1 
6 -y,x+1/2,-z,+1 
7 -y+1/2,-x+1/2,z,+1 
8 y,x,z,+1 
9 -y+1/2,x,z,-1 
10 y,-x+1/2,z,-1 
11 y+1/2,x+1/2,-z,-1 
12 -y,-x,-z,-1 
13 -x,-y,-z,-1 
14 -x+1/2,y,z,-1 
15 x,-y+1/2,z,-1 
16 x+1/2,y+1/2,-z,-1 

loop_
_space_group_symop_magn_centering.id
_space_group_symop_magn_centering.xyz
1 x,y,z,+1 

loop_
_atom_site_label
_atom_site_type_symbol
_atom_site_fract_x
_atom_site_fract_y
_atom_site_fract_z
_atom_site_occupancy
N1 N 0.75000 0.25000 0.00000 1
As1 As 0.25000 0.25000 0.6727(7) 1
Mn1 Mn 0.75000 0.25000 0.50000 1
Th1 Th 0.25000 0.25000 0.1301(5) 1

loop_
_atom_site_moment.label
_atom_site_moment.crystalaxis_x
_atom_site_moment.crystalaxis_y
_atom_site_moment.crystalaxis_z
_atom_site_moment.symmform
_atom_site_moment.magnitude
_atom_site_moment.spherical_azimuthal
_atom_site_moment.spherical_polar
Mn1 0.0 0.0 3.41(8) 0,0,mz 3.41(8) ? ?

