#\#CIF_2.0
# Created by the Bilbao Crystallographic Server
# http://www.cryst.ehu.es
# Date: 11/13/2022

data_5yOhtAoR
_audit_creation_date            2022-11-13
_audit_creation_method          "Bilbao Crystallographic Server"

_chemical_name_systematic
;
;
_chemical_name_common                    ?
_chemical_formula_moiety                 ?
_chemical_formula_structural             ?
_chemical_formula_analytical             ?
_chemical_formula_iupac                  ?
_chemical_formula_sum                    "Sr2 Ni0.9 Mg0.1 Te1 O6"
_chemical_formula_weight                 ?
_chemical_melting_point                  ?
_chemical_compound_source                ?
_chemical_absolute_configuration         ?


_citation_journal_abbrev        "Dalton Trans."
_citation_journal_volume        45
_citation_page_first            14378
_citation_page_last             14393
_citation_article_id            .
_citation_year                  2016
_citation_DOI                   10.1039/c6dt02473d

loop_
_citation_author_name
"B. Orayech"
"L. Ortega-San-Martin"
"I. Urcelay-Olabarria"
"L. Lezama"
"T. Rojo"
"M. I. Arriortua"
"J. M. Igartua"

_temperature_position_structure         .
_temperature_atom_positions             .
_temperature_non-magn_atom_positions    .
_temperature_cell_parameters            .

_atomic_positions_source_database_code_ICSD  241466
_atomic_positions_source_other               .

_transition_temperature     29
_experiment_temperature     4

loop_
_irrep_id
_irrep_dimension
_irrep_small_dimension
_irrep_direction_type
_irrep_action
_irrep_modes_number
_irrep_presence
mGM1+ 1 1 . primary 3 .

_exptl_crystal_magnetic_properties_details
;
NPD
Non-standard parent setting P12_1/n1 of the parent space group
The relative sign of the mx and mz components of the Ni moment could not be determined. Both values give a similar fit. Here one of the two possibilities is arbitrarily chosen.
;

_active_magnetic_irreps_details
;
1k magnetic structure
k-maximal magnetic symmetry
1-dim irrep
FM along b
;

_parent_space_group.name_H-M_alt  'P 2_1/n'
_parent_space_group.IT_number                       14
_parent_space_group.transform_Pp_abc  'a,b,-a+c;0,0,0'

loop_
_parent_propagation_vector.id
_parent_propagation_vector.kxkykz
k1 [0 0 0]

_parent_space_group.child_transform_Pp_abc  'a,b,c;0,0,0'
_space_group_magn.transform_BNS_Pp_abc  'a,b,-a+c;0,0,0'

_space_group_magn.number_BNS  14.75
_space_group_magn.name_BNS  "P 2_1/c"
_space_group_magn.point_group_name  "2/m"
_space_group_magn.point_group_number  "5.1.12"
_cell_length_a                 5.6052(1)
_cell_length_b                 5.5667(1)
_cell_length_c                 7.8718(1)
_cell_angle_alpha              90.00
_cell_angle_beta               89.955(4)
_cell_angle_gamma              90.00


loop_
_space_group_symop_magn_operation.id
_space_group_symop_magn_operation.xyz
1 x,y,z,+1 
2 -x+1/2,y+1/2,-z+1/2,+1 
3 -x,-y,-z,+1 
4 x+1/2,-y+1/2,z+1/2,+1 

loop_
_space_group_symop_magn_centering.id
_space_group_symop_magn_centering.xyz
1 x,y,z,+1 

loop_
_atom_site_label
_atom_site_type_symbol
_atom_site_fract_x
_atom_site_fract_y
_atom_site_fract_z
_atom_site_occupancy
Sr1 Sr 0.00000 0.4930(8) 0.25000 1.
O1 O 0.2344(3) 0.2599(3) 0.9746(1) 1.
O2 O 0.5508(2) 0.50000 0.7472(1) 1.
O3 O 0.7401(3) 0.2344(3) 0.0254(1) 1.
Ni1 Ni 0.00000 0.00000 0.50000 0.9
Mg1 Mg 0.00000 0.00000 0.50000 0.1
Te1 Te 0.00000 0.00000 0.00000 1.

loop_
_atom_site_moment.label
_atom_site_moment.crystalaxis_x
_atom_site_moment.crystalaxis_y
_atom_site_moment.crystalaxis_z
_atom_site_moment.symmform
_atom_site_moment.magnitude
_atom_site_moment.spherical_azimuthal
_atom_site_moment.spherical_polar
Ni1 1.23(8) 0.0 1.34(7) mx,my,mz 1.8(1) ? ?

