#\#CIF_2.0
# Created by the Bilbao Crystallographic Server
# http://www.cryst.ehu.es
# Date: 02/17/2023

data_5yOhtAoR
_audit_creation_date            2023-02-17
_audit_creation_method          "Bilbao Crystallographic Server"

_chemical_name_systematic
;
;
_chemical_name_common                    ?
_chemical_formula_moiety                 ?
_chemical_formula_structural             ?
_chemical_formula_analytical             ?
_chemical_formula_iupac                  ?
_chemical_formula_sum                    "Nd1 Pd1 In1"
_chemical_formula_weight                 ?
_chemical_melting_point                  ?
_chemical_compound_source                ?
_chemical_absolute_configuration         ?


_citation_journal_abbrev        "Journal of Magnetism and Magnetic Materials"
_citation_journal_volume        285
_citation_page_first            272
_citation_page_last             278
_citation_article_id            .
_citation_year                  2005
_citation_DOI                   10.1016/j.jmmm.2004.08.002

loop_
_citation_author_name
"L. Gondek"
"S. Baran"
"A. Szytula"
"D. Kaczorowski"
"J. Hernandez-Velasco"

_temperature_position_structure         .
_temperature_atom_positions             .
_temperature_non-magn_atom_positions    .
_temperature_cell_parameters            .

_atomic_positions_source_database_code_ICSD  153005
_atomic_positions_source_other               .

_transition_temperature     30
_experiment_temperature     1.5

loop_
_irrep_id
_irrep_dimension
_irrep_small_dimension
_irrep_direction_type
_irrep_action
_irrep_modes_number
_irrep_presence
mGM6 2 2 special primary 2 .
mGM2 1 1  . primary 1 no

_exptl_crystal_magnetic_properties_details
;
NPD
Ferromagnet
FM along b 
At 15K the Nd moment is reported to change and deviate from the basal plane (see #0.977). This implies in principle a different MSG and a different phase, with two primary irreps involved.
;

_active_magnetic_irreps_details
;
1k magnetic structure
2-dim irrep along a special direction as primary irrep
Secondary 1-dim irrep is symmetry allowed, but not present.
;

_parent_space_group.name_H-M_alt  'P -6 2 m'
_parent_space_group.IT_number                       189
_parent_space_group.transform_Pp_abc  'a,b,c;0,0,0'

loop_
_parent_propagation_vector.id
_parent_propagation_vector.kxkykz
k1 [0 0 0]

_parent_space_group.child_transform_Pp_abc  'a,b,c;0,0,0'
_space_group_magn.transform_BNS_Pp_abc  'c,2a+b,b;0,0,0'


_space_group_magn.number_BNS  38.191
_space_group_magn.name_BNS  "A  m'  m'  2"
_space_group_magn.point_group_name  "m'm'2"
_space_group_magn.point_group_number  "7.4.23"
_cell_length_a                 7.6734(21)
_cell_length_b                 7.6734(21)
_cell_length_c                 3.9928(10)
_cell_angle_alpha              90.00
_cell_angle_beta               90.00
_cell_angle_gamma              120.00

loop_
_space_group_symop_magn_operation.id
_space_group_symop_magn_operation.xyz
1 x,y,z,+1 
2 -x,-x+y,-z,+1 
3 x,y,-z,-1 
4 -x,-x+y,z,-1 

loop_
_space_group_symop_magn_centering.id
_space_group_symop_magn_centering.xyz
1 x,y,z,+1 

loop_
_atom_site_label
_atom_site_type_symbol
_atom_site_fract_x
_atom_site_fract_y
_atom_site_fract_z
_atom_site_occupancy
Nd1_1 Nd 0.5849(13) 0.00000 0.00000 1
Nd1_2 Nd 0.00000 0.58490 0.00000 1
Pd1 Pd 0.00000 0.00000 0.00000 1
Pd2 Pd 0.33333 0.66667 0.50000 1
In1_1 In 0.2428(35) 0.00000 0.50000 1
In1_2 In 0.00000 0.24280 0.50000 1

loop_
_atom_site_moment.label
_atom_site_moment.crystalaxis_x
_atom_site_moment.crystalaxis_y
_atom_site_moment.crystalaxis_z
_atom_site_moment.symmform
_atom_site_moment.magnitude
_atom_site_moment.spherical_azimuthal
_atom_site_moment.spherical_polar
Nd1_1 0.0 1.8(1) 0.0 mx,my,0 1.8(1) ? ?
Nd1_2 0.0 1.8(1) 0.0 0,my,0 1.8(1) ? ?

