#\#CIF_2.0
# Created by the Bilbao Crystallographic Server
# http://www.cryst.ehu.es
# Date: 02/22/2023
# from a file provided by C. Ritter

data_5yOhtAoR
_audit_creation_date            2023-02-22
_audit_creation_method          "Bilbao Crystallographic Server"

_chemical_name_systematic
;
;
_chemical_name_common                    ?
_chemical_formula_moiety                 ?
_chemical_formula_structural             ?
_chemical_formula_analytical             ?
_chemical_formula_iupac                  ?
_chemical_formula_sum                   "Tm1 V1 O3"
_chemical_formula_weight                 ?
_chemical_melting_point                  ?
_chemical_compound_source                ?
_chemical_absolute_configuration         ?


_citation_journal_abbrev        "Phys. Rev. B"
_citation_journal_volume        93
_citation_page_first            .
_citation_page_last             .
_citation_article_id            054423
_citation_year                  2016
_citation_DOI                   10.1103/PhysRevB.93.054423

loop_
_citation_author_name
"C. Ritter"
"S.A. Ivanov"
"G.V. Bazuev"
"F. Fauth"

_temperature_position_structure         .
_temperature_atom_positions             .
_temperature_non-magn_atom_positions    .
_temperature_cell_parameters            .

_atomic_positions_source_database_code_ICSD  .
_atomic_positions_source_other               .

_transition_temperature     20
_experiment_temperature     2

loop_
_irrep_id
_irrep_dimension
_irrep_small_dimension
_irrep_direction_type
_irrep_action
_irrep_modes_number
_irrep_presence
mGM1+ 1 1 . primary 4 .

_exptl_crystal_magnetic_properties_details
;
NPD
The structure changes at Too=180 K from Pnma to P21/a as an orbital order of G-type is established. Magnetic order sets in at TN1=105 K. At Ts=75 K the orbital order changes from G-type to C-type and the structure becomes again Pnma. Between TN1 and Ts a coexistence of P21/a (G-type orbital order) and Pnma (C-type orbital order) exists. 
At 85 K one has about 85% P21/a phase and 15% Pnma phase. The magnetic structure of the Pnma phase fraction is of Gy type (MSG Pn'm'a). This same order type is found below Ts=75 K where only Pnma phase exists. Below TN2=20 K the Tm becomes as well magnetically ordered and induces a spin-flop of the V-sublattice from Gy to Gx. 
This entry is for the magnetic structure at 2K, with both V and Tm magnetically ordered.
;

_active_magnetic_irreps_details
;
1k magnetic structure
k-maximal symmetry
1-dim irrep
;

_parent_space_group.name_H-M_alt  "P n m a"
_parent_space_group.IT_number                       62
_parent_space_group.transform_Pp_abc  'a,b,c;0,0,0'

loop_
_parent_propagation_vector.id
_parent_propagation_vector.kxkykz
k1 [0 0 0]

_parent_space_group.child_transform_Pp_abc  'a,b,c;0,0,0'
_space_group_magn.transform_BNS_Pp_abc  'a,b,c;0,0,0'


_space_group_magn.number_BNS  62.441
_space_group_magn.name_BNS  "P n m a"
_space_group_magn.point_group_name  "mmm"
_space_group_magn.point_group_number  "8.1.24"
_cell_length_a                 5.55768
_cell_length_b                 7.53886
_cell_length_c                 5.25389
_cell_angle_alpha              90.00000
_cell_angle_beta               90.00000
_cell_angle_gamma              90.00000

loop_
_space_group_symop_magn_operation.id
_space_group_symop_magn_operation.xyz
1 x,y,z,+1 
2 x+1/2,-y+1/2,-z+1/2,+1 
3 -x,y+1/2,-z,+1 
4 -x+1/2,-y,z+1/2,+1 
5 -x,-y,-z,+1 
6 -x+1/2,y+1/2,z+1/2,+1 
7 x,-y+1/2,z,+1 
8 x+1/2,y,-z+1/2,+1 

loop_
_space_group_symop_magn_centering.id
_space_group_symop_magn_centering.xyz
1 x,y,z,+1 

loop_
_atom_site_label
_atom_site_type_symbol
_atom_site_fract_x
_atom_site_fract_y
_atom_site_fract_z
_atom_site_occupancy
Tm1 Tm 0.07020 0.25000 -0.02200 1
V1 V 0.00000 0.00000 0.50000 1
O1 O 0.45820 0.25000 0.11800 1
O2 O 0.30080 0.06016 0.68670 1

loop_
_atom_site_moment.label
_atom_site_moment.crystalaxis_x
_atom_site_moment.crystalaxis_y
_atom_site_moment.crystalaxis_z
_atom_site_moment.symmform
_atom_site_moment.magnitude
_atom_site_moment.spherical_azimuthal
_atom_site_moment.spherical_polar
Tm1 0.0 2.15 0.0 0,my,0 2.15 ? ?
V1 -1.30 0.0 0.0 mx,my,mz 1.30 ? ?

