#\#CIF_2.0
# Created by the Bilbao Crystallographic Server
# http://www.cryst.ehu.es
# Date: 09/10/2023

data_5yOhtAoR
_audit_creation_date            2023-09-10
_audit_creation_method          "Bilbao Crystallographic Server"

_chemical_name_systematic
;
;
_chemical_name_common                    ?
_chemical_formula_moiety                 ?
_chemical_formula_structural             ?
_chemical_formula_analytical             ?
_chemical_formula_iupac                  ?
_chemical_formula_sum                    "Ho1 Fe1 O3"
_chemical_formula_weight                 ?
_chemical_melting_point                  ?
_chemical_compound_source                ?
_chemical_absolute_configuration         ?


_citation_journal_abbrev        "AIP ADVANCES"
_citation_journal_volume        7
_citation_page_first            .
_citation_page_last             .
_citation_article_id            045106
_citation_year                  2017
_citation_DOI                   10.1063/1.4979710

loop_
_citation_author_name
"T. Chatterji"
"M. Meven"
"P. J. Brown"

_temperature_position_structure         .
_temperature_atom_positions             65
_temperature_non-magn_atom_positions    .
_temperature_cell_parameters            293

_atomic_positions_source_database_code_ICSD  .
_atomic_positions_source_other               .

_transition_temperature     35
_experiment_temperature     2.5

loop_
_irrep_id
_irrep_dimension
_irrep_small_dimension
_irrep_direction_type
_irrep_action
_irrep_modes_number
_irrep_presence
mGM2+ 1 1 . primary 5 .

_exptl_crystal_magnetic_properties_details
;
NPD
Non-standard parent setting Pbnm
Relative atomic positions at 65K from the article, but cell parameters are not given, and those from a room temperature model retrieved from the ICSD(239903)are used.
FM along c (setting Pbnm)
Between 55K and 35K two alternative models of lower alternative symmetries are reported
The model is reported in a lower MSG, but only a non-zero Ho mz component well within its standard deviation, which is neglected here, breaks the higher maximal symmetry considered here.
;

_active_magnetic_irreps_details
;
1k magnetic structure
k-maximal magnetic symmetry
1-dim irrep
;

_parent_space_group.name_H-M_alt  'P n m a'
_parent_space_group.IT_number                       62
_parent_space_group.transform_Pp_abc  'b,c,a;0,0,0'

loop_
_parent_propagation_vector.id
_parent_propagation_vector.kxkykz
k1 [0 0 0]

_parent_space_group.child_transform_Pp_abc  'a,b,c;0,0,0'
_space_group_magn.transform_BNS_Pp_abc  'b,c,a;0,0,0'


_space_group_magn.number_BNS  62.446
_space_group_magn.name_BNS  "P n' m' a"
_space_group_magn.point_group_name  "m'm'm"
_space_group_magn.point_group_number  "8.4.27"
_cell_length_a                 5.27790
_cell_length_b                 5.58730
_cell_length_c                 7.60110
_cell_angle_alpha              90.00
_cell_angle_beta               90.00
_cell_angle_gamma              90.00

loop_
_space_group_symop_magn_operation.id
_space_group_symop_magn_operation.xyz
1 x,y,z,+1 
2 x+1/2,-y+1/2,-z,+1 
3 -x,-y,-z,+1 
4 -x+1/2,y+1/2,z,+1 
5 -x+1/2,y+1/2,-z+1/2,-1 
6 -x,-y,z+1/2,-1 
7 x+1/2,-y+1/2,z+1/2,-1 
8 x,y,-z+1/2,-1 

loop_
_space_group_symop_magn_centering.id
_space_group_symop_magn_centering.xyz
1 x,y,z,+1 

loop_
_atom_site_label
_atom_site_type_symbol
_atom_site_fract_x
_atom_site_fract_y
_atom_site_fract_z
_atom_site_occupancy
Ho1 Ho 0.98130 0.06860 0.25000 1
Fe1 Fe 0.00000 0.50000 0.00000 1
O1 O 0.10980 0.46010 0.25000 1
O2 O 0.69200 0.30480 0.05640 1

loop_
_atom_site_moment.label
_atom_site_moment.crystalaxis_x
_atom_site_moment.crystalaxis_y
_atom_site_moment.crystalaxis_z
_atom_site_moment.symmform
_atom_site_moment.magnitude
_atom_site_moment.spherical_azimuthal
_atom_site_moment.spherical_polar
Ho1 3.53(7) 7.90(6) 0.0 mx,my,0 8.65 ? ?
Fe1 0.47(14) -0.24(12) -4.57(2) mx,my,mz 4.60 ? ?

