#\#CIF_2.0
# Created by the Bilbao Crystallographic Server
# http://www.cryst.ehu.es
# Date: 21/11/2020 

data_5yOhtAoR
_audit_creation_date            2020-11-21
_audit_creation_method          "Bilbao Crystallographic Server"

_citation_journal_abbrev        "PHYSICAL REVIEW B"
_citation_journal_volume        97
_citation_page_first            .
_citation_page_last             .
_citation_article_id            214422
_citation_year                  2018
_citation_DOI                   10.1103/PhysRevB.97.214422

loop_
_citation_author_name
"M. C. Rahn"
"J.-R. Soh"
"S. Francoual"
"L. S. I. Veiga"
"J. Strempfer"
"J. Mardegan"
"D. Y. Yan"
"Y. F. Guo"
"Y. G. Shi"
"A. T. Boothroyd"

_atomic_positions_source_database_code_ICSD  422963
_atomic_positions_source_other               .

_transition_temperature  9.5
_experiment_temperature  2.6

loop_
_irrep_id
_irrep_dimension
_irrep_small_dimension
_irrep_direction_type
_irrep_action
_irrep_modes_number
_irrep_presence
mA3+ 2  2  special  primary  1  .

_exptl_crystal_magnetic_properties_details
;
Resonant X-ray scattering
Position structure from a model at 293K from another study retrieved from ICSD.
Moment magnitude undetermined. An arbitrary value is given here.
;

_active_magnetic_irreps_details
;
1k magnetic structure
2-dim irrep along a special direction as primary
;

_parent_space_group.name_H-M_alt  'P -3 m 1'
_parent_space_group.IT_number                       164
_parent_space_group.transform_Pp_abc  'a,b,c;0,0,0'

loop_
_parent_propagation_vector.id
_parent_propagation_vector.kxkykz
k1 [0 0 1/2]

_parent_space_group.child_transform_Pp_abc  'a,b,2c;0,0,0'
_space_group_magn.transform_BNS_Pp_abc  '-a-2b,a,c;0,0,0'



_space_group_magn.number_BNS  12.63
_space_group_magn.name_BNS  "C_c 2/m"
_cell_length_a             4.44990
_cell_length_b             4.44990
_cell_length_c             14.70000
_cell_angle_alpha          90.00
_cell_angle_beta           90.00
_cell_angle_gamma          120.00

loop_
_space_group_symop_magn_operation.id
_space_group_symop_magn_operation.xyz
1 x,y,z,+1 
2 x-y,-y,-z,+1 
3 -x,-y,-z,+1 
4 -x+y,y,z,+1 

loop_
_space_group_symop_magn_centering.id
_space_group_symop_magn_centering.xyz
1 x,y,z,+1 
2 x,y,z+1/2,-1 

loop_
_atom_site_label
_atom_site_type_symbol
_atom_site_fract_x
_atom_site_fract_y
_atom_site_fract_z
Eu1 Eu 0.00000 0.00000 0.00000
Cd1 Cd 0.33333 0.66667 0.31658
As1 As 0.33333 0.66667 0.12334

loop_
_atom_site_moment.label
_atom_site_moment.crystalaxis_x
_atom_site_moment.crystalaxis_y
_atom_site_moment.crystalaxis_z
_atom_site_moment.symmform
_atom_site_moment.magnitude
Eu1 1.00000 0.00000 0.00000 mx,0,0   ?



