#\#CIF_2.0
# Created by the Bilbao Crystallographic Server
# http://www.cryst.ehu.es
# Date: 10/02/2021 

data_5yOhtAoR
_audit_creation_date            2021-10-02
_audit_creation_method          "Bilbao Crystallographic Server"

_chemical_name_systematic
;
;
_chemical_name_common                    ?
_chemical_formula_moiety                 ?
_chemical_formula_structural             ?
_chemical_formula_analytical             ?
_chemical_formula_iupac                  ?
_chemical_formula_sum                    "Mn S"
_chemical_formula_weight                 ?
_chemical_melting_point                  ?
_chemical_compound_source                ?
_chemical_absolute_configuration         ?


_citation_journal_abbrev        "J. Phys. Chem. C"
_citation_journal_volume        125
_citation_page_first            16183
_citation_page_last             16190
_citation_article_id            .
_citation_year                  2021
_citation_DOI                   10.1021/acs.jpcc.1c02956

loop_
_citation_author_name
"J. K. Clark"
"V.t Yannello"
"A. M. Samarakoon"
"C. Ross"
"M. C. Uible"
"V. O. Garlea"
"M. Shatruk"

_temperature_position_structure         .
_temperature_atom_positions             .
_temperature_non-magn_atom_positions    .
_temperature_cell_parameters            .

_atomic_positions_source_database_code_ICSD  .
_atomic_positions_source_other               .

_transition_temperature     152
_experiment_temperature     4

loop_
_irrep_id
_irrep_dimension
_irrep_small_dimension
_irrep_direction_type
_irrep_action
_irrep_modes_number
_irrep_presence
mL3+ 8 2 special primary 1 .

_exptl_crystal_magnetic_properties_details
;
NPD
;

_active_magnetic_irreps_details
;
1k magnetic structure
2-dim small irrep along a special direction as primary.
Probably the data is not sensitive to the orientation of the spins on the (1,1,1) planes, and an orientation has been chosen that maximizes the possible MSG for the active irrep.  
;

_parent_space_group.name_H-M_alt  'F m -3 m'
_parent_space_group.IT_number                       225
_parent_space_group.transform_Pp_abc  'a,b,c;0,0,0'

loop_
_parent_propagation_vector.id
_parent_propagation_vector.kxkykz
k1 [1/2 1/2 1/2]

_parent_space_group.child_transform_Pp_abc  '2a,2b,2c;0,0,0'
_space_group_magn.transform_BNS_Pp_abc  '3/4a+1/2b+3/4c,1/4a-1/4c,a+b+c;0,0,0'

_space_group_magn.number_BNS  12.63
_space_group_magn.name_BNS  "C_c 2/m"
_space_group_magn.point_group_name  "2/m1'"
_space_group_magn.point_group_number  "5.2.13"
_cell_length_a                 10.40560
_cell_length_b                 10.40560
_cell_length_c                 10.40560
_cell_angle_alpha              90.00
_cell_angle_beta               90.00
_cell_angle_gamma              90.00

loop_
_space_group_symop_magn_operation.id
_space_group_symop_magn_operation.xyz
1 x,y,z,+1 
2 -z,-y,-x,+1 
3 -x,-y,-z,+1 
4 z,y,x,+1 

loop_
_space_group_symop_magn_centering.id
_space_group_symop_magn_centering.xyz
1 x,y,z,+1 
2 x,y+1/4,z+3/4,+1 
3 x,y+1/2,z+1/2,+1 
4 x,y+3/4,z+1/4,+1 
5 x+1/4,y,z+3/4,+1 
6 x+1/4,y+1/4,z+1/2,+1 
7 x+1/4,y+1/2,z+1/4,+1 
8 x+1/4,y+3/4,z,+1 
9 x+1/2,y,z+1/2,+1 
10 x+1/2,y+1/4,z+1/4,+1 
11 x+1/2,y+1/2,z,+1 
12 x+1/2,y+3/4,z+3/4,+1 
13 x+3/4,y,z+1/4,+1 
14 x+3/4,y+1/4,z,+1 
15 x+3/4,y+1/2,z+3/4,+1 
16 x+3/4,y+3/4,z+1/2,+1 
17 x,y+3/4,z+3/4,-1 
18 x,y,z+1/2,-1 
19 x,y+1/4,z+1/4,-1 
20 x,y+1/2,z,-1 
21 x+1/4,y+3/4,z+1/2,-1 
22 x+1/4,y,z+1/4,-1 
23 x+1/4,y+1/4,z,-1 
24 x+1/4,y+1/2,z+3/4,-1 
25 x+1/2,y+3/4,z+1/4,-1 
26 x+1/2,y,z,-1 
27 x+1/2,y+1/4,z+3/4,-1 
28 x+1/2,y+1/2,z+1/2,-1 
29 x+3/4,y+3/4,z,-1 
30 x+3/4,y,z+3/4,-1 
31 x+3/4,y+1/4,z+1/2,-1 
32 x+3/4,y+1/2,z+1/4,-1 

loop_
_atom_site_label
_atom_site_type_symbol
_atom_site_fract_x
_atom_site_fract_y
_atom_site_fract_z
_atom_site_occupancy
Mn1 Mn 0.00000 0.00000 0.00000 1
S1 S 0.25000 0.25000 0.25000 1

loop_
_atom_site_moment.label
_atom_site_moment.crystalaxis_x
_atom_site_moment.crystalaxis_y
_atom_site_moment.crystalaxis_z
_atom_site_moment.symmform
_atom_site_moment.magnitude
_atom_site_moment.spherical_azimuthal
_atom_site_moment.spherical_polar
Mn1 3.11 0.0 -3.11 mx,0,-mx 4.4(1) ? ?

