#\#CIF_2.0
# Created by the Bilbao Crystallographic Server
# http://www.cryst.ehu.es
# Date: 11/11/2021 

data_5yOhtAoR
_audit_creation_date            2021-11-11
_audit_creation_method          "Bilbao Crystallographic Server"

_chemical_name_systematic
;
;
_chemical_name_common                    ?
_chemical_formula_moiety                 ?
_chemical_formula_structural             ?
_chemical_formula_analytical             ?
_chemical_formula_iupac                  ?
_chemical_formula_sum                    "Pr Mn Si2"
_chemical_formula_weight                 ?
_chemical_melting_point                  ?
_chemical_compound_source                ?
_chemical_absolute_configuration         ?


_citation_journal_abbrev        "Journal of Magnetism and Magnetic Materials"
_citation_journal_volume        86
_citation_page_first            349
_citation_page_last             362
_citation_article_id            .
_citation_year                  1990
_citation_DOI                   10.1016/0304-8853(90)90143-E

loop_
_citation_author_name
"B. Malaman"
"G. Venturini"
"L. Pontonnier"
"D. Fruchart"

_temperature_position_structure         300
_temperature_atom_positions             .
_temperature_non-magn_atom_positions    .
_temperature_cell_parameters            .

_atomic_positions_source_database_code_ICSD  643350
_atomic_positions_source_other               .

_transition_temperature     34(2)
_experiment_temperature     2

loop_
_irrep_id
_irrep_dimension
_irrep_small_dimension
_irrep_direction_type
_irrep_action
_irrep_modes_number
_irrep_presence
mY1- 1 1 . primary 2 .

_exptl_crystal_magnetic_properties_details
;
NPD
Position structure from a determination at 300K
Above 35, up to 434K, a FM with only Mn moments aligned along b exists.
;

_active_magnetic_irreps_details
;
1k magnetic structure
k-maximal magnetic symmetry
1-dim irrep
;

_parent_space_group.name_H-M_alt  'C m c m'
_parent_space_group.IT_number                       63
_parent_space_group.transform_Pp_abc  'a,b,c;0,0,0'

loop_
_parent_propagation_vector.id
_parent_propagation_vector.kxkykz
k1 [1 0 0]

_parent_space_group.child_transform_Pp_abc  'a,b,c;0,0,0'
_space_group_magn.transform_BNS_Pp_abc  'b,c,a;1/4,1/4,0'

_space_group_magn.number_BNS  52.318
_space_group_magn.name_BNS  "P_B n n a"
_space_group_magn.point_group_name  "mmm1'"
_space_group_magn.point_group_number  "8.2.25"
_cell_length_a                 4.09400
_cell_length_b                 17.55300
_cell_length_c                 4.02800
_cell_angle_alpha              90.00
_cell_angle_beta               90.00
_cell_angle_gamma              90.00

loop_
_space_group_symop_magn_operation.id
_space_group_symop_magn_operation.xyz
1 x,y,z,+1 
2 -x,y,-z+1/2,+1 
3 -x,-y,z+1/2,+1 
4 x,-y,-z,+1 
5 -x+1/2,-y+1/2,-z,+1 
6 x+1/2,-y+1/2,z+1/2,+1 
7 x+1/2,y+1/2,-z+1/2,+1 
8 -x+1/2,y+1/2,z,+1 

loop_
_space_group_symop_magn_centering.id
_space_group_symop_magn_centering.xyz
1 x,y,z,+1 
2 x+1/2,y+1/2,z,-1 

loop_
_atom_site_label
_atom_site_type_symbol
_atom_site_fract_x
_atom_site_fract_y
_atom_site_fract_z
_atom_site_occupancy
Pr1 Pr 0.00000 0.10100 0.25000 1
Mn1 Mn 0.00000 0.75000 0.25000 1
Si1 Si 0.00000 0.32600 0.25000 1
Si2 Si 0.00000 0.46500 0.25000 1

loop_
_atom_site_moment.label
_atom_site_moment.crystalaxis_x
_atom_site_moment.crystalaxis_y
_atom_site_moment.crystalaxis_z
_atom_site_moment.symmform
_atom_site_moment.magnitude
_atom_site_moment.spherical_azimuthal
_atom_site_moment.spherical_polar
Pr1 0.0 2.35(10) 0.0 0,my,0 2.35(10) ? ?
Mn1 0.0 2.04(4) 0.0 0,my,0 2.04(4) ? ?

