#\#CIF_2.0
# Created by the Bilbao Crystallographic Server
# http://www.cryst.ehu.es
# Date: 10/19/2022

data_5yOhtAoR
_audit_creation_date            2022-10-19
_audit_creation_method          "Bilbao Crystallographic Server"

_chemical_name_systematic
;
;
_chemical_name_common                    ?
_chemical_formula_moiety                 ?
_chemical_formula_structural             ?
_chemical_formula_analytical             ?
_chemical_formula_iupac                  ?
_chemical_formula_sum                    "Dy Mn2 Ge2"
_chemical_formula_weight                 ?
_chemical_melting_point                  ?
_chemical_compound_source                ?
_chemical_absolute_configuration         ?


_citation_journal_abbrev        "PHYSICAL REVIEW B"
_citation_journal_volume        43
_citation_page_first            728
_citation_page_last             734
_citation_article_id            .
_citation_year                  1991
_citation_DOI                   10.1103/PhysRevB.43.728

loop_
_citation_author_name
"H. Kobayashi"
"H. Onodera"
"Y. Yamaguchi"
"H. Yamamoto"

_temperature_position_structure         .
_temperature_atom_positions             .
_temperature_non-magn_atom_positions    .
_temperature_cell_parameters            .

_atomic_positions_source_database_code_ICSD  150884
_atomic_positions_source_other               .

_transition_temperature     431
_experiment_temperature     50

loop_
_irrep_id
_irrep_dimension
_irrep_small_dimension
_irrep_direction_type
_irrep_action
_irrep_modes_number
_irrep_presence
mM1-  1  1  .  primary  1  .


_exptl_crystal_magnetic_properties_details
;
NSD
At lower temperatures, below 33K, a ferrimagnetic phase is reported 
An intermediate phase, between 37.5K and 33K, is observed but not fully characterized. 
;

_active_magnetic_irreps_details
;
1k magnetic structure
k-maximal magnetic symmetry
1-dim irrep
;

_parent_space_group.name_H-M_alt  'I 4/m m m'
_parent_space_group.IT_number                       139
_parent_space_group.transform_Pp_abc  'a,b,c;0,0,0'

loop_
_parent_propagation_vector.id
_parent_propagation_vector.kxkykz
k1 [1 1 1]

_parent_space_group.child_transform_Pp_abc  'a,b,c;0,0,0'
_space_group_magn.transform_BNS_Pp_abc  'a,b,c;1/4,1/4,1/4'

_space_group_magn.number_BNS  126.386
_space_group_magn.name_BNS  "P_I 4/n n c"
_space_group_magn.point_group_name  "4/mmm1'"
_space_group_magn.point_group_number  "15.2.54"
_cell_length_a                 3.98700
_cell_length_b                 3.98700
_cell_length_c                 10.85900
_cell_angle_alpha              90.00
_cell_angle_beta               90.00
_cell_angle_gamma              90.00

loop_
_space_group_symop_magn_operation.id
_space_group_symop_magn_operation.xyz
1 x,y,z,+1 
2 -y,x,z,+1 
3 y,-x,z,+1 
4 x,-y,-z,+1 
5 -x,y,-z,+1 
6 -x,-y,z,+1 
7 y,x,-z,+1 
8 -y,-x,-z,+1 
9 -x+1/2,-y+1/2,-z+1/2,+1 
10 y+1/2,-x+1/2,-z+1/2,+1 
11 -y+1/2,x+1/2,-z+1/2,+1 
12 -x+1/2,y+1/2,z+1/2,+1 
13 x+1/2,-y+1/2,z+1/2,+1 
14 x+1/2,y+1/2,-z+1/2,+1 
15 -y+1/2,-x+1/2,z+1/2,+1 
16 y+1/2,x+1/2,z+1/2,+1 

loop_
_space_group_symop_magn_centering.id
_space_group_symop_magn_centering.xyz
1 x,y,z,+1 
2 x+1/2,y+1/2,z+1/2,-1 

loop_
_atom_site_label
_atom_site_type_symbol
_atom_site_fract_x
_atom_site_fract_y
_atom_site_fract_z
_atom_site_occupancy
Dy1 Dy 0.00000 0.00000 0.00000 1.
Mn1 Mn 0.00000 0.50000 0.25000 0.9967(4)
Ge1 Ge 0.00000 0.50000 0.25000 0.0033(4)
Ge2 Ge 0.00000 0.00000 0.3847(2) 0.9967(4)
Mn2 Mn 0.00000 0.00000 0.3847(2) 0.0033(4)

loop_
_atom_site_moment.label
_atom_site_moment.crystalaxis_x
_atom_site_moment.crystalaxis_y
_atom_site_moment.crystalaxis_z
_atom_site_moment.symmform
_atom_site_moment.magnitude
_atom_site_moment.spherical_azimuthal
_atom_site_moment.spherical_polar
Dy1 0.0 0.0 0.0 0,0,0 0.0 ? ?
Mn1 0.0 0.0 2.2(1) 0,0,mz 2.2(1) ? ?

