#\#CIF_2.0
# Created by the Bilbao Crystallographic Server
# http://www.cryst.ehu.es
# Date: 11/09/2022

data_5yOhtAoR
_audit_creation_date            2022-11-09
_audit_creation_method          "Bilbao Crystallographic Server"

_chemical_name_systematic
;
;
_chemical_name_common                    ?
_chemical_formula_moiety                 ?
_chemical_formula_structural             ?
_chemical_formula_analytical             ?
_chemical_formula_iupac                  ?
_chemical_formula_sum                    "Ce1 Au1 Bi2"
_chemical_formula_weight                 ?
_chemical_melting_point                  ?
_chemical_compound_source                ?
_chemical_absolute_configuration         ?


_citation_journal_abbrev        "PHYSICAL REVIEW B"
_citation_journal_volume        101
_citation_page_first            .
_citation_page_last             .
_citation_article_id            214431
_citation_year                  2020
_citation_DOI                   10.1103/PhysRevB.101.214431

loop_
_citation_author_name
"M. M. Piva"
"R. Tartaglia"
"G. S. Freitas"
"J. C. Souza"
"D. S. Christovam"
"S. M. Thomas"
"B. Leao"
"W. Ratcliff"
"J. W. Lynn"
"C. Lane"
"J.-X. Zhu"
"J. D. Thompson"
"P. F. S. Rosa"
"C. Adriano"
"E. Granado"
"P. G. Pagliuso"

_temperature_position_structure         293
_temperature_atom_positions             .
_temperature_non-magn_atom_positions    .
_temperature_cell_parameters            .

_atomic_positions_source_database_code_ICSD  238705
_atomic_positions_source_other               .

_transition_temperature     19
_experiment_temperature     2.8

loop_
_irrep_id
_irrep_dimension
_irrep_small_dimension
_irrep_direction_type
_irrep_action
_irrep_modes_number
_irrep_presence
mZ1- 1 1 . primary 1 .

_exptl_crystal_magnetic_properties_details
;
NSD
Positional structure from a determination at room temperature by another study, retrieved from the ICSD.
;

_active_magnetic_irreps_details
;
1k magnetic structure
k-maximal magnetic symmetry
1-dim irrep
;

_parent_space_group.name_H-M_alt  'P 4/n m m'
_parent_space_group.IT_number                       129
_parent_space_group.transform_Pp_abc  'a,b,c;0,0,0'

loop_
_parent_propagation_vector.id
_parent_propagation_vector.kxkykz
k1 [0 0 1/2]

_parent_space_group.child_transform_Pp_abc  'a,b,2c;0,0,0'
_space_group_magn.transform_BNS_Pp_abc  'a,b,c;0,0,1/4'

_space_group_magn.number_BNS  130.432
_space_group_magn.name_BNS  "P_c 4/n c c"
_space_group_magn.point_group_name  "4/mmm1'"
_space_group_magn.point_group_number  "15.2.54"
_cell_length_a                 4.61900
_cell_length_b                 4.61900
_cell_length_c                 19.83600
_cell_angle_alpha              90.00
_cell_angle_beta               90.00
_cell_angle_gamma              90.00

loop_
_space_group_symop_magn_operation.id
_space_group_symop_magn_operation.xyz
1 x,y,z,+1 
2 -y+1/2,x,z,+1 
3 y,-x+1/2,z,+1 
4 x+1/2,-y,-z,+1 
5 -x,y+1/2,-z,+1 
6 -x+1/2,-y+1/2,z,+1 
7 y+1/2,x+1/2,-z,+1 
8 -y,-x,-z,+1 
9 -x,-y,-z+1/2,+1 
10 y+1/2,-x,-z+1/2,+1 
11 -y,x+1/2,-z+1/2,+1 
12 -x+1/2,y,z+1/2,+1 
13 x,-y+1/2,z+1/2,+1 
14 x+1/2,y+1/2,-z+1/2,+1 
15 -y+1/2,-x+1/2,z+1/2,+1 
16 y,x,z+1/2,+1 

loop_
_space_group_symop_magn_centering.id
_space_group_symop_magn_centering.xyz
1 x,y,z,+1 
2 x,y,z+1/2,-1 

loop_
_atom_site_label
_atom_site_type_symbol
_atom_site_fract_x
_atom_site_fract_y
_atom_site_fract_z
_atom_site_occupancy
Ce1 Ce 0.25000 0.25000 0.11920 1
Bi1 Bi 0.25000 0.25000 0.40915 1
Bi2 Bi 0.75000 0.25000 0.25000 1
Au1 Au 0.75000 0.25000 0.00000 1

loop_
_atom_site_moment.label
_atom_site_moment.crystalaxis_x
_atom_site_moment.crystalaxis_y
_atom_site_moment.crystalaxis_z
_atom_site_moment.symmform
_atom_site_moment.magnitude
_atom_site_moment.spherical_azimuthal
_atom_site_moment.spherical_polar
Ce1 0.0 0.0 2.3(4) 0,0,mz 2.3(4) ? ?

