#\#CIF_2.0
# Created by the Bilbao Crystallographic Server
# http://www.cryst.ehu.es
# from a mcif file provided by O. Zaharko
# Date: 01/26/2024 

data_5yOhtAoR
_audit_creation_date            2024-01-26
_audit_creation_method          "Bilbao Crystallographic Server"

_chemical_name_systematic
;
;
_chemical_name_common                    ?
_chemical_formula_moiety                 ?
_chemical_formula_structural             ?
_chemical_formula_analytical             ?
_chemical_formula_iupac                  ?
_chemical_formula_sum                    "Y1 Mn12"
_chemical_formula_weight                 ?
_chemical_melting_point                  ?
_chemical_compound_source                ?
_chemical_absolute_configuration         ?


_citation_journal_abbrev        "Solid State Commun."
_citation_journal_volume        19
_citation_page_first            845
_citation_page_last             851
_citation_article_id            .
_citation_year                  1976
_citation_DOI                   10.1016/0038-1098(76)90668-2

loop_
_citation_author_name
"J. Deportes"
"D. Givod"

_temperature_position_structure         293
_temperature_atom_positions             .
_temperature_non-magn_atom_positions    .
_temperature_cell_parameters            .

_atomic_positions_source_database_code_ICSD   150927
_atomic_positions_source_other                .

_transition_temperature     120
_experiment_temperature     4.2

loop_
_irrep_id
_irrep_dimension
_irrep_small_dimension
_irrep_direction_type
_irrep_action
_irrep_modes_number
_irrep_presence
mM3- 1 1 . primary 3 .

_exptl_crystal_magnetic_properties_details
;
NPD
Position structure from a determination at room temperature
;

_active_magnetic_irreps_details
;
k-maximal magnetic symmetry
1k magnetic structure
1-dim irrep
;

_parent_space_group.name_H-M_alt  'I 4/m m m'
_parent_space_group.IT_number                       139
_parent_space_group.transform_Pp_abc  'a,b,c;0,0,0'

loop_
_parent_propagation_vector.id
_parent_propagation_vector.kxkykz
k1 [0 0 1]

_parent_space_group.child_transform_Pp_abc  'a,b,c;0,0,0'
_space_group_magn.transform_BNS_Pp_abc  'a,b,c;1/4,1/4,1/4'


_space_group_magn.number_BNS  129.422
_space_group_magn.name_BNS  "P_I 4/n m m"
_space_group_magn.point_group_name  "4/mmm1'"
_space_group_magn.point_group_number  "15.2.54"
_cell_length_a                 8.59
_cell_length_b                 8.59
_cell_length_c                 4.79
_cell_angle_alpha              90.00
_cell_angle_beta               90.00
_cell_angle_gamma              90.00

loop_
_space_group_symop_magn_operation.id
_space_group_symop_magn_operation.xyz
1 x,y,z,+1 
2 -y,x,z,+1 
3 y,-x,z,+1 
4 x+1/2,-y+1/2,-z+1/2,+1 
5 -x+1/2,y+1/2,-z+1/2,+1 
6 -x,-y,z,+1 
7 y+1/2,x+1/2,-z+1/2,+1 
8 -y+1/2,-x+1/2,-z+1/2,+1 
9 -x+1/2,-y+1/2,-z+1/2,+1 
10 y+1/2,-x+1/2,-z+1/2,+1 
11 -y+1/2,x+1/2,-z+1/2,+1 
12 -x,y,z,+1 
13 x,-y,z,+1 
14 x+1/2,y+1/2,-z+1/2,+1 
15 -y,-x,z,+1 
16 y,x,z,+1 

loop_
_space_group_symop_magn_centering.id
_space_group_symop_magn_centering.xyz
1 x,y,z,+1 
2 x+1/2,y+1/2,z+1/2,-1 

loop_
_atom_site_label
_atom_site_type_symbol
_atom_site_fract_x
_atom_site_fract_y
_atom_site_fract_z
_atom_site_occupancy
Y1 Y 0.00000 0.00000 0.00000 1
Mn1 Mn 0.36000 0.00000 0.00000 1
Mn2 Mn 0.27700 0.50000 0.00000 1
Mn3 Mn 0.25000 0.25000 0.25000 1

loop_
_atom_site_moment.label
_atom_site_moment.crystalaxis_x
_atom_site_moment.crystalaxis_y
_atom_site_moment.crystalaxis_z
_atom_site_moment.symmform
_atom_site_moment.magnitude
_atom_site_moment.spherical_azimuthal
_atom_site_moment.spherical_polar
Mn1 0.0 -0.42(4) 0.0 0,my,0 0.42(4) ? ?
Mn2 0.0 0.42(4) 0.0 0,my,0 0.42(4) ? ?
Mn3 0.10 -0.10 0.0 mx,-mx,0 0.14(4) ? ?

