#\#CIF_2.0
# Created by the Bilbao Crystallographic Server
# http://www.cryst.ehu.es
# Date: 09/26/2024 
# From a file submitted by V. Pomjakushin

data_5yOhtAoR
_audit_creation_date            2024-09-26
_audit_creation_method          "Bilbao Crystallographic Server"

_chemical_name_systematic
;
;
_chemical_name_common                    ?
_chemical_formula_moiety                 ?
_chemical_formula_structural             ?
_chemical_formula_analytical             ?
_chemical_formula_iupac                  ?
_chemical_formula_sum                    "Tb3 Nb1 O7"
_chemical_formula_weight                 ?
_chemical_melting_point                  ?
_chemical_compound_source                ?
_chemical_absolute_configuration         ?


_citation_journal_abbrev        "Journal of Magnetism and Magnetic Materials"
_citation_journal_volume        599
_citation_page_first            .
_citation_page_last             .
_citation_article_id            172106
_citation_year                  2024
_citation_DOI                   10.1016/j.jmmm.2024.172106

loop_
_citation_author_name
"M. Hase"
"A. Donni"
"V.Yu. Pomjakushin"
"M. Rotter"

_temperature_position_structure         .
_temperature_atom_positions             .
_temperature_non-magn_atom_positions    .
_temperature_cell_parameters            .

_atomic_positions_source_database_code_ICSD  .
_atomic_positions_source_other               .

_transition_temperature     2.0
_experiment_temperature     1.8

loop_
_irrep_id
_irrep_dimension
_irrep_small_dimension
_irrep_direction_type
_irrep_action
_irrep_modes_number
_irrep_presence
mY4 1 1 . primary 5 .

_exptl_crystal_magnetic_properties_details
;
NPD
In the paper, the k-vector was identified as the GM point [0,0,0] and the fits were performed in P1 (but not in C1 with k=[100]) using the mGM4 irrep. However, the authors applied constraints that effectively corresponded to k=(1,0,0) and the mY4 irrep.
The structure is presented here in the standard setting of the MPG, which means an interchange of crystallographic axes and an origin shift, with respect to the description in the paper.
;

_active_magnetic_irreps_details
;
1k magnetic structure
k-maximal magnetic symmetry
1-dim irrep
;

_parent_space_group.name_H-M_alt  'C 2 2 2_1'
_parent_space_group.IT_number                       20
_parent_space_group.transform_Pp_abc  'a,b,c;0,0,0'

loop_
_parent_propagation_vector.id
_parent_propagation_vector.kxkykz
k1 [1 0 0]

_parent_space_group.child_transform_Pp_abc  'a,c,-b;0,-1/4,1/4'
_space_group_magn.transform_BNS_Pp_abc  'a,b,c;0,0,0'


_space_group_magn.number_BNS  18.22
_space_group_magn.name_BNS  "P_B 2_1 2_1 2"
_space_group_magn.point_group_name  "222.1'"
_space_group_magn.point_group_number  "6.2.18"
_cell_length_a                 7.46900
_cell_length_b                 7.50570
_cell_length_c                 10.55640
_cell_angle_alpha              90.00000
_cell_angle_beta               90.00000
_cell_angle_gamma              90.00000

loop_
_space_group_symop_magn_operation.id
_space_group_symop_magn_operation.xyz
1 x,y,z,+1 
2 x+1/2,-y+1/2,-z,+1 
3 -x+1/2,y+1/2,-z,+1 
4 -x,-y,z,+1 

loop_
_space_group_symop_magn_centering.id
_space_group_symop_magn_centering.xyz
1 x,y,z,+1 
2 x+1/2,y,z+1/2,-1 

loop_
_atom_site_label
_atom_site_type_symbol
_atom_site_fract_x
_atom_site_fract_y
_atom_site_fract_z
_atom_site_occupancy
Tb1 Tb 0.48823 0.25000 0.75000 1
Tb2 Tb 0.26786 0.00497 0.48457 1
Nb1 Nb -0.00929 0.25000 0.75000 1
O1 O 0.20698 0.77152 0.62866 1
O2 O 0.18551 0.21373 0.62446 1
O3 O 0.00000 0.00000 0.37836 1
O4 O 0.00000 0.00000 0.11476 1
O5 O 0.00000 0.00000 0.81764 1

loop_
_atom_site_moment.label
_atom_site_moment.crystalaxis_x
_atom_site_moment.crystalaxis_y
_atom_site_moment.crystalaxis_z
_atom_site_moment.symmform
_atom_site_moment.magnitude
_atom_site_moment.spherical_azimuthal
_atom_site_moment.spherical_polar
Tb1 0.0 7.22(10) 1.16(5) 0,My,Mz 7.31(10) ? ?
Tb2 3.66(6) 1.57(3) 6.48(4) Mx,My,Mz 7.60(6) ? ?

