#\#CIF_2.0
# Created by the Bilbao Crystallographic Server
# http://www.cryst.ehu.es
# Date: 10/02/2024
# From a file submitted by V. Pomjakushin

data_5yOhtAoR
_audit_creation_date            2024-10-02
_audit_creation_method          "Bilbao Crystallographic Server"

_chemical_name_systematic
;
;
_chemical_name_common                    ?
_chemical_formula_moiety                 ?
_chemical_formula_structural             ?
_chemical_formula_analytical             ?
_chemical_formula_iupac                  ?
_chemical_formula_sum                    "Cr1 S1 Br1"
_chemical_formula_weight                 ?
_chemical_melting_point                  ?
_chemical_compound_source                ?
_chemical_absolute_configuration         ?


_citation_journal_abbrev        "Nature Communications"
_citation_journal_volume        13
_citation_page_first            .
_citation_page_last             .
_citation_article_id            4745
_citation_year                  2022
_citation_DOI                   10.1038/s41467-022-32290-4

loop_
_citation_author_name
"S.A. Lopez-Paz"
"Z. Guguchia"
"V.Y. Pomjakushin"
"C. Witteveen"
"A. Cervellino"
"H. Luetkens"
"N. Casati"
"A.F. Morpurgo"
"F.O. von Rohr"

_temperature_position_structure         ?
_temperature_atom_positions             ?
_temperature_non-magn_atom_positions    ?
_temperature_cell_parameters            ?

_atomic_positions_source_database_code_ICSD  .
_atomic_positions_source_other               .

_transition_temperature     140
_experiment_temperature     1.8

loop_
_irrep_id
_irrep_dimension
_irrep_small_dimension
_irrep_direction_type
_irrep_action
_irrep_modes_number
_irrep_presence
mZ4+ 1 1 special prinary 1 .

_exptl_crystal_magnetic_properties_details
;
NPD
;

_active_magnetic_irreps_details
;
1k magnetic structure
k-maximal magnetic symmetry
1-dim irrep
;

_parent_space_group.name_H-M_alt  'P m m n'
_parent_space_group.IT_number                       59
_parent_space_group.transform_Pp_abc  'a,b,c;0,0,0'

loop_
_parent_propagation_vector.id
_parent_propagation_vector.kxkykz
k1 [0 0 1/2]

_parent_space_group.child_transform_Pp_abc  '2c,b,-a;1/2,0,0'
_space_group_magn.transform_BNS_Pp_abc  'a,b,c;0,0,0'


_space_group_magn.number_BNS  62.450
_space_group_magn.name_BNS  "P_a n m a"
_space_group_magn.point_group_name  "mmm1'"
_space_group_magn.point_group_number  "8.2.25"
_cell_length_a                 15.82410
_cell_length_b                 4.74479
_cell_length_c                 3.51206
_cell_angle_alpha              90.00000
_cell_angle_beta               90.00000
_cell_angle_gamma              90.00000

loop_
_space_group_symop_magn_operation.id
_space_group_symop_magn_operation.xyz
1 x,y,z,+1 
2 x+1/2,-y+1/2,-z+1/2,+1 
3 -x,y+1/2,-z,+1 
4 -x+1/2,-y,z+1/2,+1 
5 -x,-y,-z,+1 
6 -x+1/2,y+1/2,z+1/2,+1 
7 x,-y+1/2,z,+1 
8 x+1/2,y,-z+1/2,+1 

loop_
_space_group_symop_magn_centering.id
_space_group_symop_magn_centering.xyz
1 x,y,z,+1 
2 x+1/2,y,z,-1 

loop_
_atom_site_label
_atom_site_type_symbol
_atom_site_fract_x
_atom_site_fract_y
_atom_site_fract_z
_atom_site_occupancy
Cr1 Cr 0.56406 0.25000 0.75000 1
S1 S 0.53850 0.75000 0.75000 1
Br1 Br 0.32360 0.75000 0.75000 1

loop_
_atom_site_moment.label
_atom_site_moment.crystalaxis_x
_atom_site_moment.crystalaxis_y
_atom_site_moment.crystalaxis_z
_atom_site_moment.symmform
_atom_site_moment.magnitude
_atom_site_moment.spherical_azimuthal
_atom_site_moment.spherical_polar
Cr1 0.0 3.09(1) 0.0 0,My,0 3.09(1) ? ?

