#\#CIF_2.0
# Created by the Bilbao Crystallographic Server
# http://www.cryst.ehu.es
# Date: 12/08/2024

data_5yOhtAoR
_audit_creation_date            2024-12-08
_audit_creation_method          "Bilbao Crystallographic Server"

_chemical_name_systematic
;
;
_chemical_name_common                    ?
_chemical_formula_moiety                 ?
_chemical_formula_structural             ?
_chemical_formula_analytical             ?
_chemical_formula_iupac                  ?
_chemical_formula_sum                    "Ho1.08 Lu0.92 Fe2 Si2 C1"
_chemical_formula_weight                 ?
_chemical_melting_point                  ?
_chemical_compound_source                ?
_chemical_absolute_configuration         ? 


_citation_journal_abbrev        "J. Magn. Magn. Mat."
_citation_journal_volume        612
_citation_page_first            .
_citation_page_last             .
_citation_article_id            172631
_citation_year                  2024
_citation_DOI                   10.1016/j.jmmm.2024.172631

loop_
_citation_author_name
"R. A. Susilo"
"J. M. Cadogan"
"W. D. Hutchison"
"M. Avdeev"
"S. J. Campbell"

_temperature_position_structure         .
_temperature_atom_positions             .
_temperature_non-magn_atom_positions    .
_temperature_cell_parameters            .

_atomic_positions_source_database_code_ICSD  .
_atomic_positions_source_other               .

_transition_temperature     10
_experiment_temperature     3

loop_
_irrep_id
_irrep_dimension
_irrep_small_dimension
_irrep_direction_type
_irrep_action
_irrep_modes_number
_irrep_presence
mA2- 1 1 . primary 1 .

_exptl_crystal_magnetic_properties_details
;
NPD
;

_active_magnetic_irreps_details
;
1k magnetic structure
k-maximal magnetic symmetry
1-dim irrep
;

_parent_space_group.name_H-M_alt  'C 2/m'
_parent_space_group.IT_number                       12
_parent_space_group.transform_Pp_abc  'a,b,c;0,0,0'

loop_
_parent_propagation_vector.id
_parent_propagation_vector.kxkykz
k1 [0 0 1/2]

_parent_space_group.child_transform_Pp_abc  'a,b,2c;0,0,0'
_space_group_magn.transform_BNS_Pp_abc  'a,b,c;0,0,1/4'


_space_group_magn.number_BNS  12.63
_space_group_magn.name_BNS  "C_c 2/m"
_space_group_magn.point_group_name  "2/m.1'"
_space_group_magn.point_group_number  "5.2.13"
_cell_length_a                 10.4707(8)
_cell_length_b                 3.8837(2)
_cell_length_c                 13.2638
_cell_angle_alpha              90.00
_cell_angle_beta               129.076(6)
_cell_angle_gamma              90.00

loop_
_space_group_symop_magn_operation.id
_space_group_symop_magn_operation.xyz
1 x,y,z,+1 
2 -x,y,-z+1/2,+1 
3 -x,-y,-z+1/2,+1 
4 x,-y,z,+1 

loop_
_space_group_symop_magn_centering.id
_space_group_symop_magn_centering.xyz
1 x,y,z,+1 
2 x+1/2,y+1/2,z,+1 
3 x,y,z+1/2,-1 
4 x+1/2,y+1/2,z+1/2,-1 

loop_
_atom_site_label
_atom_site_type_symbol
_atom_site_fract_x
_atom_site_fract_y
_atom_site_fract_z
_atom_site_occupancy
Ho1 Ho 0.5616(15) 0.00000 0.1475 0.54
Lu1 Lu 0.5616(15) 0.00000 0.1475 0.46
Fe1 Fe 0.204(2) 0.00000 0.049 1.
Si1 Si 0.158(3) 0.00000 0.351 1.
C1 C 0.00000 0.00000 0.00000 1.

loop_
_atom_site_moment.label
_atom_site_moment.crystalaxis_x
_atom_site_moment.crystalaxis_y
_atom_site_moment.crystalaxis_z
_atom_site_moment.symmform
_atom_site_moment.magnitude
_atom_site_moment.spherical_azimuthal
_atom_site_moment.spherical_polar
Ho1 0.0 9.1(2) 0.0 0,my,0 9.1(2) ? ?

