#\#CIF_2.0
# Created by the Bilbao Crystallographic Server
# http://www.cryst.ehu.es
# Date: 12/28/2024

data_5yOhtAoR
_audit_creation_date            2024-12-28
_audit_creation_method          "Bilbao Crystallographic Server"

_chemical_name_systematic
;
;
_chemical_name_common                    ?
_chemical_formula_moiety                 ?
_chemical_formula_structural             ?
_chemical_formula_analytical             ?
_chemical_formula_iupac                  ?
_chemical_formula_sum                    "Sr2 Mn1 Si2 O7"
_chemical_formula_weight                 ?
_chemical_melting_point                  ?
_chemical_compound_source                ?
_chemical_absolute_configuration         ?


_citation_journal_abbrev        "Acta Cryst. B"
_citation_journal_volume        80
_citation_page_first            393
_citation_page_last             400
_citation_article_id            .
_citation_year                  2024
_citation_DOI                   10.1107/S2052520624007625

loop_
_citation_author_name
"Y. Nambu"
"M. Kawamata"
"X. Pang"
"H. Murakawa"
"M. Avdeev"
"H. Kimura"
"H. Masuda"
"N. Hanasakie"
"Y. Onose"

_temperature_position_structure         .
_temperature_atom_positions             .
_temperature_non-magn_atom_positions    .
_temperature_cell_parameters            .

_atomic_positions_source_database_code_ICSD  .
_atomic_positions_source_other              .

_transition_temperature     ?
_experiment_temperature     2.8(3)

loop_
_irrep_id
_irrep_dimension
_irrep_small_dimension
_irrep_direction_type
_irrep_action
_irrep_modes_number
_irrep_presence
mZ5 2 2 special primary 2 .

_exptl_crystal_magnetic_properties_details
;
NSD
Structure under a magnetic field H=0.31T along a
;

_active_magnetic_irreps_details
;
1k magnetic structure
k-maximal magnetic symmetry
2-dim irrep along a special direction
;

_parent_space_group.name_H-M_alt  'P -4 2_1 m'
_parent_space_group.IT_number                       113
_parent_space_group.transform_Pp_abc  'a,b,c;0,0,0'

loop_
_parent_propagation_vector.id
_parent_propagation_vector.kxkykz
k1 [0 0 1/2]

_parent_space_group.child_transform_Pp_abc  'a,b,2c;0,0,0'
_space_group_magn.transform_BNS_Pp_abc  'a,b,c;1/4,0,0'


_space_group_magn.number_BNS  19.28
_space_group_magn.name_BNS  "P_c 2_1 2_1 2_1"
_space_group_magn.point_group_name  "2221'"
_space_group_magn.point_group_number  "6.2.18"
_cell_length_a                 8.148(7)
_cell_length_b                 8.131(3)
_cell_length_c                 10.320(5)
_cell_angle_alpha              90.00
_cell_angle_beta               90.00
_cell_angle_gamma              90.00

loop_
_space_group_symop_magn_operation.id
_space_group_symop_magn_operation.xyz
1 x,y,z,+1 
2 x+1/2,-y+1/2,-z,+1 
3 -x+1/2,y+1/2,-z+1/2,+1 
4 -x,-y,z+1/2,+1 

loop_
_space_group_symop_magn_centering.id
_space_group_symop_magn_centering.xyz
1 x,y,z,+1 
2 x,y,z+1/2,-1 

loop_
_atom_site_label
_atom_site_type_symbol
_atom_site_fract_x
_atom_site_fract_y
_atom_site_fract_z
_atom_site_occupancy
Mn1 Mn 0.00000 0.00000 0.00000(5) 1
Sr1 Sr 0.8342(3) 0.3334(2) 0.2469(2) 1
Si1 Si 0.6370(5) 0.1375(3) 0.0307(2) 1
O1 O 0.00000 0.50000 0.4161(3) 1
O2 O 0.6404(4) 0.1396(2) 0.3752(2) 1
O3_1 O 0.0779(3) 0.1958(2) 0.3954(2) 1
O3_2 O 0.1968(3) 0.9218(2) 0.6045(2) 1

loop_
_atom_site_moment.label
_atom_site_moment.crystalaxis_x
_atom_site_moment.crystalaxis_y
_atom_site_moment.crystalaxis_z
_atom_site_moment.symmform
_atom_site_moment.magnitude
_atom_site_moment.spherical_azimuthal
_atom_site_moment.spherical_polar
Mn1 0.3(9) 3.14(2) 0.0 mx,my,0 3.15(9) ? ?

