#\#CIF_2.0
# Created by the Bilbao Crystallographic Server
# http://www.cryst.ehu.es
# Date: 02/18/2023

data_5yOhtAoR
_audit_creation_date            2023-02-18
_audit_creation_method          "Bilbao Crystallographic Server"

_chemical_name_systematic
;
;
_chemical_name_common                    ?
_chemical_formula_moiety                 ?
_chemical_formula_structural             ?
_chemical_formula_analytical             ?
_chemical_formula_iupac                  ?
_chemical_formula_sum                    "Sb1 Tb1 Te1"
_chemical_formula_weight                 ?
_chemical_melting_point                  ?
_chemical_compound_source                ?
_chemical_absolute_configuration         ?


_citation_journal_abbrev        "Inorg. Chem."
_citation_journal_volume        61
_citation_page_first            11399
_citation_page_last             11409
_citation_article_id            .
_citation_year                  2022
_citation_DOI                   10.1021/acs.inorgchem.2c01711

loop_
_citation_author_name
"I. Plokhikh"
"V. Pomjakushin"
"D. J. Gawryluk"
"O. Zaharko"
"E. Pomjakushina"

_temperature_position_structure         .
_temperature_atom_positions             .
_temperature_non-magn_atom_positions    .
_temperature_cell_parameters            .

_atomic_positions_source_database_code_ICSD  .
_atomic_positions_source_other               .

_transition_temperature     4.3
_experiment_temperature     1.7

loop_
_irrep_id
_irrep_dimension
_irrep_small_dimension
_irrep_direction_type
_irrep_action
_irrep_modes_number
_irrep_presence
mX2 4 2 special-2 primary 4 .
mX1 4 2 special-2 primary 2 .

_exptl_crystal_magnetic_properties_details
;
NPD
Non-standard parent setting P4/nmm (origin choice 1)
This structure is reported to coexist with another 2k phase according to propagation vectors (1/2,0,1/4),(0,1/2,1/4), which prevails above 4.3K, up to 5.3K, where a couple of incommensurate structures are observed up to 6.4K.
;

_active_magnetic_irreps_details
;
2k magnetic structure
Two irreps are involved with comparable weights along a special direction given by the special way the components associated with the two k-vectors of the star are combined. Both have the relevant MSG as epikernel and can be considered primary.
;

_parent_space_group.name_H-M_alt  'P 4/n m m'
_parent_space_group.IT_number                       129
_parent_space_group.transform_Pp_abc  'a,b,c;1/4,-1/4,0'

loop_
_parent_propagation_vector.id
_parent_propagation_vector.kxkykz
k1 [1/2 0 0]
k2 [0 1/2 0]

_parent_space_group.child_transform_Pp_abc  '2a-2b,2a+2b,c;0,0,0'
_space_group_magn.transform_BNS_Pp_abc  'a,b,c;0,0,0'


_space_group_magn.number_BNS  5.17
_space_group_magn.name_BNS  "C_a 2"
_space_group_magn.point_group_name  "21'"
_space_group_magn.point_group_number  3.2.7
_cell_length_a                 11.98451(17)
_cell_length_b                 11.98451(17)
_cell_length_c                 9.1986(5)
_cell_angle_alpha              90
_cell_angle_beta               90
_cell_angle_gamma              90

loop_
_space_group_symop_magn_operation.id
_space_group_symop_magn_operation.xyz
1 x,y,z,+1 
2 -x,y,-z,+1 

loop_
_space_group_symop_magn_centering.id
_space_group_symop_magn_centering.xyz
1 x,y,z,+1 
2 x+1/2,y+1/2,z,+1 
3 x,y+1/2,z,-1 
4 x+1/2,y,z,-1 

loop_
_atom_site_label
_atom_site_type_symbol
_atom_site_fract_x
_atom_site_fract_y
_atom_site_fract_z
_atom_site_occupancy
Tb1_1 Tb 0.125 0.375 0.72467 1
Tb1_2 Tb 0.375 0.125 0.72467 1
Te1_1 Te 0.125 0.375 0.37632 1
Te1_2 Te 0.375 0.125 0.37632 1
Sb1_1 Sb 0.25 0.25 0 1
Sb1_2 Sb 0 0.5 0 1
Sb1_3 Sb 0.25 0.5 0 1
Sb1_4 Sb 0 0.75 0 1

loop_
_atom_site_moment.label
_atom_site_moment.crystalaxis_x
_atom_site_moment.crystalaxis_y
_atom_site_moment.crystalaxis_z
_atom_site_moment.symmform
_atom_site_moment.magnitude
_atom_site_moment.spherical_azimuthal
_atom_site_moment.spherical_polar
Tb1_1 4.43(6) -2.27(10) 3.03(9) mx,my,mz 5.8(1) ? ?
Tb1_2 3.91(7) 0.76(9) 4.26(7) mx,my,mz 5.8(1) ? ?

