#\#CIF_2.0
# Created by the Bilbao Crystallographic Server
# http://www.cryst.ehu.es
# Date: 09/15/2022

data_5yOhtAoR
_audit_creation_date            2022-09-15
_audit_creation_method          "Bilbao Crystallographic Server"

_chemical_name_systematic
;
;
_chemical_name_common                    ?
_chemical_formula_moiety                 ?
_chemical_formula_structural             ?
_chemical_formula_analytical             ?
_chemical_formula_iupac                  ?
_chemical_formula_sum                    "Tb1 Co1 Ga5"
_chemical_formula_weight                 ?
_chemical_melting_point                  ?
_chemical_compound_source                ?
_chemical_absolute_configuration         ?

_citation_journal_abbrev        "PHYSICAL REVIEW B"
_citation_journal_volume        84
_citation_page_first            .
_citation_page_last             .
_citation_article_id            214403
_citation_year                  2011
_citation_DOI                   10.1103/PhysRevB.84.214403

loop_
_citation_author_name
"Y. Tokunaga"
"Y. Saito"
"H. Sakai"
"S. Kambe"
"N. Sanada"
"R. Watanuki"
"K. Suzuki"
"Y. Kawasaki"
"Y. Kishimoto"

_temperature_position_structure         293
_temperature_atom_positions             .
_temperature_non-magn_atom_positions    .
_temperature_cell_parameters            .

_atomic_positions_source_database_code_ICSD  623195
_atomic_positions_source_other               .

_transition_temperature     5.4
_experiment_temperature     1.5

loop_
_irrep_id
_irrep_dimension
_irrep_small_dimension
_irrep_direction_type
_irrep_action
_irrep_modes_number
_irrep_presence
mR2+(k1) 2 1 . primary 1 .
mR3+(k2) 2 1 . primary 1 .

_exptl_crystal_magnetic_properties_details
;
NMR
Position structure is not given. Here one at room temperature retrieved from the ICSD is used.
Moment components and moment modulus are not determined. Here they are given arbitrary values.
This the second magnetic phase observed when lowering the temperature. Between 36.2K and 5.4K a simpler magnetic phase with only one of the two propagation vectors, and with the moments along c has been reported.
;

_active_magnetic_irreps_details
;
2k magnetic structure
k-maximal symmetry
Two small irreps as primary. One for each of the propagation vectors. Irrep mR2+(k1) is associated with the spin component along c, and irrep mR3+(k2) with that along x.
;

_parent_space_group.name_H-M_alt  'P 4/m m m'
_parent_space_group.IT_number                       123
_parent_space_group.transform_Pp_abc  'a,b,c;0,0,0'

loop_
_parent_propagation_vector.id
_parent_propagation_vector.kxkykz
k1 [1/2 0 1/2]
k2 [0 1/2 1/2]

_parent_space_group.child_transform_Pp_abc  '2a,2b,2c;0,0,0'
_space_group_magn.transform_BNS_Pp_abc  'b,c,a;1/4,1/4,1/4'

_space_group_magn.number_BNS  72.547
_space_group_magn.name_BNS  "I_b  b  a  m"
_space_group_magn.point_group_name  "mmm1'"
_space_group_magn.point_group_number  "8.2.25"
_cell_length_a                 8.43400
_cell_length_b                 8.43400
_cell_length_c                 13.61800
_cell_angle_alpha              90.00
_cell_angle_beta               90.00
_cell_angle_gamma              90.00

loop_
_space_group_symop_magn_operation.id
_space_group_symop_magn_operation.xyz
1 x,y,z,+1 
2 -x,y,-z+1/2,+1 
3 -x,-y+1/2,z,+1 
4 x,-y+1/2,-z+1/2,+1 
5 -x+1/2,-y+1/2,-z+1/2,+1 
6 x+1/2,-y+1/2,z,+1 
7 x+1/2,y,-z+1/2,+1 
8 -x+1/2,y,z,+1 

loop_
_space_group_symop_magn_centering.id
_space_group_symop_magn_centering.xyz
1 x,y,z,+1 
2 x+1/2,y+1/2,z+1/2,+1 
3 x,y,z+1/2,-1 
4 x+1/2,y+1/2,z,-1 

loop_
_atom_site_label
_atom_site_type_symbol
_atom_site_fract_x
_atom_site_fract_y
_atom_site_fract_z
_atom_site_occupancy
Tb1 Tb 0.00000 0.00000 0.00000 1
Co1 Co 0.00000 0.00000 0.25000 1
Ga1 Ga 0.25000 0.25000 0.00000 1
Ga2_1 Ga 0.00000 0.25000 0.15500 1
Ga2_2 Ga 0.25000 0.00000 0.15500 1
Ga2_3 Ga 0.25000 0.00000 0.84500 1

loop_
_atom_site_moment.label
_atom_site_moment.crystalaxis_x
_atom_site_moment.crystalaxis_y
_atom_site_moment.crystalaxis_z
_atom_site_moment.symmform
_atom_site_moment.magnitude
_atom_site_moment.spherical_azimuthal
_atom_site_moment.spherical_polar
Tb1 -0.5 0.0 -1. mx,0,mz ? ? ?

